; Gromacs Topology File written by Sire
; File written 09/09/26  17:30:22
[ defaults ]
; nbfunc      comb-rule       gen-pairs      fudgeLJ     fudgeQQ
  1           2               yes            0.5         0.833333

[ atomtypes ]
; name      at.num        mass      charge   ptype       sigma     epsilon
    C1           6   12.010700    0.000000       A    0.348065    0.363503
   C10           6   12.010700    0.000000       A    0.348065    0.363503
   C11           6   12.010700    0.000000       A    0.348065    0.363503
   C12           6   12.010700    0.000000       A    0.348065    0.363503
   C13           6   12.010700    0.000000       A    0.348065    0.363503
   C14           6   12.010700    0.000000       A    0.337953    0.455389
   C15           6   12.010700    0.000000       A    0.337953    0.455389
    C2           6   12.010700    0.000000       A    0.348065    0.363503
    C3           6   12.010700    0.000000       A    0.348065    0.363503
    C4           6   12.010700    0.000000       A    0.348065    0.363503
    C5           6   12.010700    0.000000       A    0.348065    0.363503
    C6           6   12.010700    0.000000       A    0.348065    0.363503
    C7           6   12.010700    0.000000       A    0.348065    0.363503
    C8           6   12.010700    0.000000       A    0.348065    0.363503
    C9           6   12.010700    0.000000       A    0.348065    0.363503
    Cl          17   35.453000    0.000000       A    0.440104    0.418400
   Cl1          17   35.453000    0.000000       A    0.330753    1.111271
   Cl2          17   35.453000    0.000000       A    0.330753    1.111271
    H1           1    1.007940    0.000000       A    0.264454    0.066021
   H10           1    1.007940    0.000000       A    0.264454    0.066021
   H11           1    1.007940    0.000000       A    0.264454    0.066021
   H12           1    1.007940    0.000000       A    0.264454    0.066021
   H13           1    1.007940    0.000000       A    0.264454    0.066021
    H2           1    1.007940    0.000000       A    0.257258    0.065318
    H3           1    1.007940    0.000000       A    0.257258    0.065318
    H4           1    1.007940    0.000000       A    0.257258    0.065318
    H5           1    1.007940    0.000000       A    0.110343    0.058956
    H6           1    1.007940    0.000000       A    0.257258    0.065318
    H7           1    1.007940    0.000000       A    0.245363    0.054840
    H8           1    1.007940    0.000000       A    0.257258    0.065318
    H9           1    1.007940    0.000000       A    0.110343    0.058956
    HW           1    1.007940    0.000000       A    0.000000    0.000000
    N1           7   14.006700    0.000000       A    0.320688    0.701621
    N2           7   14.006700    0.000000       A    0.320688    0.701621
    N3           7   14.006700    0.000000       A    0.320688    0.701621
    Na          11   22.989770    0.000000       A    0.332840    0.011590
    O1           8   15.999400    0.000000       A    0.303981    0.879502
    O2           8   15.999400    0.000000       A    0.303981    0.879502
    OW           8   15.999400    0.000000       A    0.315061    0.636386

[ moleculetype ]
; name  nrexcl
CL  3

[ atoms ]
;   nr   type  resnr residue  atom   cgnr     charge         mass
     1     Cl      1      CL    CL      1  -1.000000    35.450000


[ moleculetype ]
; name  nrexcl
LIG  3

[ atoms ]
;   nr   type  resnr residue  atom   cgnr     charge         mass
     1     C1      1     LIG     C      1  -0.096943    12.010780
     2     C2      1     LIG     C      2  -0.129443    12.010780
     3     C3      1     LIG     C      3   0.050957    12.010780
     4     C4      1     LIG     C      4  -0.142543    12.010780
     5     C5      1     LIG     C      5   0.050957    12.010780
     6     C6      1     LIG     C      6  -0.129443    12.010780
     7    Cl1      1     LIG    Cl      7  -0.058843    35.453200
     8     C7      1     LIG     C      8   0.688757    12.010780
     9     O1      1     LIG     O      9  -0.536043    15.999430
    10     N1      1     LIG     N     10  -0.466043    14.006720
    11     C8      1     LIG     C     11   0.124657    12.010780
    12     C9      1     LIG     C     12  -0.330243    12.010780
    13    C10      1     LIG     C     13   0.443257    12.010780
    14     N2      1     LIG     N     14  -0.734943    14.006720
    15    C11      1     LIG     C     15   0.544257    12.010780
    16    C12      1     LIG     C     16  -0.273243    12.010780
    17     N3      1     LIG     N     17  -0.551343    14.006720
    18    C13      1     LIG     C     18   0.663157    12.010780
    19     O2      1     LIG     O     19  -0.573043    15.999430
    20    C14      1     LIG     C     20  -0.156343    12.010780
    21    Cl2      1     LIG    Cl     21  -0.058843    35.453200
    22     H1      1     LIG     H     22   0.076257     1.007947
    23     H2      1     LIG     H     23   0.148057     1.007947
    24     H3      1     LIG     H     24   0.156557     1.007947
    25     H4      1     LIG     H     25   0.156557     1.007947
    26     H5      1     LIG     H     26   0.325557     1.007947
    27     H6      1     LIG     H     27   0.142057     1.007947
    28     H7      1     LIG     H     28   0.021157     1.007947
    29     H8      1     LIG     H     29   0.205057     1.007947
    30     H9      1     LIG     H     30   0.327557     1.007947
    31    C15      1     LIG     C     31  -0.097043    12.010780
    32    H10      1     LIG     H     32   0.076257     1.007947
    33    H11      1     LIG     H     33   0.044424     1.007947
    34    H12      1     LIG     H     34   0.044424     1.007947
    35    H13      1     LIG     H     35   0.044424     1.007947

[ bonds ]
;   ai     aj  funct  parameters
     1      2      1  0.138719  301905
     1      6      1  0.138719  301905
     1     23      1  0.108536  332423
     2      3      1  0.138719  301905
     2     24      1  0.108536  332423
     3      4      1  0.138719  301905
     3     21      1  0.174607  182441
     4      5      1  0.138719  301905
     4      8      1  0.145463  233580
     5      6      1  0.138719  301905
     5      7      1  0.174607  182441
     6     25      1  0.108536  332423
     8      9      1  0.12252  487602
     8     10      1  0.13819  412348
    10     11      1  0.139016  326382
    10     26      1  0.101948  422705
    11     12      1  0.138719  301905
    11     16      1  0.138719  301905
    12     13      1  0.138719  301905
    12     27      1  0.108536  332423
    13     14      1  0.132878  372632
    13     28      1  0.108536  332423
    14     15      1  0.132878  372632
    15     16      1  0.138719  301905
    15     17      1  0.139016  326382
    16     29      1  0.108536  332423
    17     18      1  0.13819  412348
    17     30      1  0.101948  422705
    18     19      1  0.12252  487602
    18     20      1  0.152344  275677
    20     22      1  0.10939  309655
    20     31      1  0.15219  221435
    20     32      1  0.10939  309655
    31     33      1  0.10939  309655
    31     34      1  0.10939  309655
    31     35      1  0.10939  309655

[ pairs ]
;   ai     aj funct
     1      4     1
     1      7     1
     1     21     1
     2      5     1
     2      8     1
     2     25     1
     3      6     1
     3      7     1
     3      9     1
     3     10     1
     3     23     1
     4     11     1
     4     24     1
     4     25     1
     4     26     1
     5      9     1
     5     10     1
     5     21     1
     5     23     1
     6      8     1
     6     24     1
     7      8     1
     7     25     1
     8     12     1
     8     16     1
     8     21     1
     9     11     1
     9     26     1
    10     13     1
    10     15     1
    10     27     1
    10     29     1
    11     14     1
    11     17     1
    11     28     1
    12     15     1
    12     26     1
    12     29     1
    13     16     1
    13     17     1
    14     18     1
    14     27     1
    14     29     1
    14     30     1
    15     19     1
    15     20     1
    15     28     1
    16     18     1
    16     26     1
    16     27     1
    16     30     1
    17     22     1
    17     29     1
    17     31     1
    17     32     1
    18     33     1
    18     34     1
    18     35     1
    19     22     1
    19     30     1
    19     31     1
    19     32     1
    20     30     1
    21     24     1
    22     33     1
    22     34     1
    22     35     1
    23     24     1
    23     25     1
    27     28     1
    32     33     1
    32     34     1
    32     35     1

[ angles ]
;   ai     aj     ak   funct   parameters
     1      2      3       1   126.806  484.493
     1      2     24       1   129.184  285.071
     1      6      5       1   126.806  484.493
     1      6     25       1   129.184  285.071
     2      1      6       1   126.806  484.493
     2      1     23       1   129.184  285.071
     2      3      4       1   126.806  484.493
     2      3     21       1   126.806  484.493
     3      2     24       1   129.184  285.071
     3      4      5       1   126.806  484.493
     3      4      8       1   126.806  484.493
     4      3     21       1   126.806  484.493
     4      5      6       1   126.806  484.493
     4      5      7       1   126.806  484.493
     4      8      9       1   126.806  484.493
     4      8     10       1   126.806  484.493
     5      4      8       1   126.806  484.493
     5      6     25       1   129.184  285.071
     6      1     23       1   129.184  285.071
     6      5      7       1   126.806  484.493
     8     10     11       1   117.347  463.77
     8     10     26       1   115.507  530.901
     9      8     10       1   126.806  484.493
    10     11     12       1   126.806  484.493
    10     11     16       1   126.806  484.493
    11     10     26       1   115.507  530.901
    11     12     13       1   126.806  484.493
    11     12     27       1   129.184  285.071
    11     16     15       1   126.806  484.493
    11     16     29       1   129.184  285.071
    12     11     16       1   126.806  484.493
    12     13     14       1   126.806  484.493
    12     13     28       1   129.184  285.071
    13     12     27       1   129.184  285.071
    13     14     15       1   112.871  460.9
    14     13     28       1   129.184  285.071
    14     15     16       1   126.806  484.493
    14     15     17       1   126.806  484.493
    15     16     29       1   129.184  285.071
    15     17     18       1   117.347  463.77
    15     17     30       1   115.507  530.901
    16     15     17       1   126.806  484.493
    17     18     19       1   126.806  484.493
    17     18     20       1   126.806  484.493
    18     17     30       1   115.507  530.901
    18     20     22       1   116.548  445.222
    18     20     31       1   116.548  445.222
    18     20     32       1   116.548  445.222
    19     18     20       1   126.806  484.493
    20     31     33       1   116.548  445.222
    20     31     34       1   116.548  445.222
    20     31     35       1   116.548  445.222
    22     20     31       1   116.548  445.222
    22     20     32       1   115.603  408.162
    31     20     32       1   116.548  445.222
    33     31     34       1   115.603  408.162
    33     31     35       1   115.603  408.162
    34     31     35       1   115.603  408.162

[ dihedrals ]
;   ai     aj     ak     al  funct  parameters
     1      2      3      4      1  180  15.3215  2
     1      2      3     21      1  180  15.3215  2
     1      2      6     23      4  180  1.53413  2
     1      6      5      4      1  180  15.3215  2
     1      6      5      7      1  180  15.3215  2
     1      6     23      2      4  180  1.53413  2
     1     23      2      6      4  180  1.53413  2
     1     24      3      2      1  180  1.53413  2
     1     25      5      6      1  180  1.53413  2
     2      1      3     24      4  180  1.53413  2
     2      1      6      5      1  180  15.3215  2
     2      1      6     25      1  180  15.3215  2
     2      3      4      5      1  180  15.3215  2
     2      3      4      8      1  180  15.3215  2
     2     21      4      3      4  180  1.53413  2
     2     24      1      3      4  180  1.53413  2
     3      2      1      6      1  180  15.3215  2
     3      2      1     23      1  180  15.3215  2
     3      2      4     21      4  180  1.53413  2
     3      4      5      6      1  180  15.3215  2
     3      4      5      7      1  180  15.3215  2
     3      4      8      9      1  180  4.17319  2
     3      4      8     10      1  180  4.17319  2
     3      8      5      4      4  180  1.53413  2
     3     21      2      4      4  180  1.53413  2
     4      3      2     24      1  180  15.3215  2
     4      3      5      8      4  180  1.53413  2
     4      5      6     25      1  180  15.3215  2
     4      7      6      5      4  180  1.53413  2
     4      8      3      5      4  180  1.53413  2
     4      8     10     11      9  0  -0.201513  1
     4      8     10     11      9  180  7.56905  2
     4      8     10     26      9  0  -0.201513  1
     4      8     10     26      9  180  7.56905  2
     4     10      9      8      4  180  1.53413  2
     5      1     25      6      4  180  1.53413  2
     5      4      3     21      1  180  15.3215  2
     5      4      6      7      4  180  1.53413  2
     5      4      8      9      1  180  4.17319  2
     5      4      8     10      1  180  4.17319  2
     5      6      1     23      1  180  15.3215  2
     5      7      4      6      4  180  1.53413  2
     6      1      2     24      1  180  15.3215  2
     6      1      5     25      4  180  1.53413  2
     6      5      4      8      1  180  15.3215  2
     7      5      4      8      1  180  15.3215  2
     7      5      6     25      1  180  15.3215  2
     8      4      3     21      1  180  15.3215  2
     8      4      9     10      4  180  1.53413  2
     8     10      4      9      4  180  1.53413  2
     8     10     11     12      1  180  4.9919  2
     8     10     11     16      1  180  4.9919  2
     8     26     11     10      4  180  1.39467  2
     9      8     10     11      9  0  -1.7791  1
     9      8     10     11      9  180  12.9786  2
     9      8     10     26      9  0  5.25576  1
     9      8     10     26      9  180  9.8256  2
    10      8     11     26      4  180  1.39467  2
    10     11     12     13      1  180  15.3215  2
    10     11     12     27      1  180  15.3215  2
    10     11     16     15      1  180  15.3215  2
    10     11     16     29      1  180  15.3215  2
    10     16     12     11      4  180  1.53413  2
    10     26      8     11      4  180  1.39467  2
    11     10     12     16      4  180  1.53413  2
    11     12     13     14      1  180  15.3215  2
    11     12     13     28      1  180  15.3215  2
    11     16     10     12      4  180  1.53413  2
    11     16     15     14      1  180  15.3215  2
    11     16     15     17      1  180  15.3215  2
    11     27     13     12      4  180  1.53413  2
    11     29     15     16      4  180  1.53413  2
    12     11     10     26      1  180  4.9919  2
    12     11     13     27      4  180  1.53413  2
    12     11     16     15      1  180  15.3215  2
    12     11     16     29      1  180  15.3215  2
    12     13     14     15      1  180  24.7412  2
    12     27     11     13      4  180  1.53413  2
    12     28     14     13      4  180  1.53413  2
    13     12     11     16      1  180  15.3215  2
    13     12     14     28      4  180  1.53413  2
    13     14     15     16      1  180  24.7412  2
    13     14     15     17      1  180  15.6141  2
    13     28     12     14      4  180  1.53413  2
    14     13     12     27      1  180  15.3215  2
    14     15     16     29      1  180  15.3215  2
    14     15     17     18      1  180  4.9919  2
    14     15     17     30      1  180  4.9919  2
    14     17     16     15      4  180  1.53413  2
    15     11     29     16      4  180  1.53413  2
    15     14     13     28      1  180  15.6141  2
    15     14     16     17      4  180  1.53413  2
    15     17     14     16      4  180  1.53413  2
    15     17     18     19      9  0  -1.7791  1
    15     17     18     19      9  180  12.9786  2
    15     17     18     20      9  0  -0.201513  1
    15     17     18     20      9  180  7.56905  2
    15     30     18     17      4  180  1.39467  2
    16     11     10     26      1  180  4.9919  2
    16     11     12     27      1  180  15.3215  2
    16     11     15     29      4  180  1.53413  2
    16     15     17     18      1  180  4.9919  2
    16     15     17     30      1  180  4.9919  2
    17     15     16     29      1  180  15.3215  2
    17     15     18     30      4  180  1.39467  2
    17     18     20     22      1  0  0.111501  3
    17     18     20     31      9  0  -0.190867  4
    17     18     20     31      9  0  0.6427  2
    17     18     20     32      1  0  0.111501  3
    17     20     19     18      4  180  1.53413  2
    17     30     15     18      4  180  1.39467  2
    18     17     19     20      4  180  1.53413  2
    18     20     17     19      4  180  1.53413  2
    18     20     31     33      1  0  0.483408  3
    18     20     31     34      1  0  0.483408  3
    18     20     31     35      1  0  0.483408  3
    19     18     17     30      9  0  5.25576  1
    19     18     17     30      9  180  9.8256  2
    19     18     20     22      9  0  0.623295  2
    19     18     20     22      9  0  1.90024  1
    19     18     20     22      9  180  0.123848  3
    19     18     20     31      1  0  -1.54948  2
    19     18     20     32      9  0  0.623295  2
    19     18     20     32      9  0  1.90024  1
    19     18     20     32      9  180  0.123848  3
    20     18     17     30      9  0  -0.201513  1
    20     18     17     30      9  180  7.56905  2
    21      3      2     24      1  180  15.3215  2
    22     20     31     33      1  0  0.79995  3
    22     20     31     34      1  0  0.79995  3
    22     20     31     35      1  0  0.79995  3
    23      1      2     24      1  180  15.3215  2
    23      1      6     25      1  180  15.3215  2
    27     12     13     28      1  180  15.3215  2
    32     20     31     33      1  0  0.79995  3
    32     20     31     34      1  0  0.79995  3
    32     20     31     35      1  0  0.79995  3


[ moleculetype ]
; name  nrexcl
NA  3

[ atoms ]
;   nr   type  resnr residue  atom   cgnr     charge         mass
     1     Na      1      NA    NA      1   1.000000    22.990000


[ moleculetype ]
; name  nrexcl
SOL  3

[ atoms ]
;   nr   type  resnr residue  atom   cgnr     charge         mass
     1     OW      1     SOL    OW      1  -0.834000    16.000000
     2     HW      1     SOL   HW1      1   0.417000     1.008000
     3     HW      1     SOL   HW2      1   0.417000     1.008000

#ifdef FLEXIBLE
[ bonds ]
;   ai     aj  funct  parameters
     1      2      1  0.09572  502416
     1      3      1  0.09572  502416

[ angles ]
;   ai     aj     ak   funct   parameters
     2      1      3       1   104.52  628.02

#else

[ settles ]
; OW    funct   doh dhh
1       1       0.09572 0.15136

[ exclusions ]
1   2   3
2   1   3
3   1   2

#endif

[ system ]


[ molecules ]
;molecule name    nr.
           LIG      1
           SOL   1696
            NA      5
            CL      5
