
 5133
    1LIG      C    1   1.577   1.161   1.986
    1LIG      C    2   1.545   1.213   1.861
    1LIG      C    3   1.410   1.211   1.821
    1LIG      C    4   1.313   1.164   1.914
    1LIG      C    5   1.348   1.113   2.033
    1LIG      C    6   1.480   1.106   2.072
    1LIG     Cl    7   1.229   1.068   2.154
    1LIG      C    8   1.172   1.173   1.891
    1LIG      O    9   1.119   1.101   1.813
    1LIG      N   10   1.098   1.271   1.957
    1LIG      C   11   0.957   1.266   1.957
    1LIG      C   12   0.902   1.226   2.076
    1LIG      C   13   0.769   1.225   2.088
    1LIG      N   14   0.685   1.244   1.986
    1LIG      C   15   0.727   1.275   1.866
    1LIG      C   16   0.866   1.293   1.851
    1LIG      N   17   0.629   1.312   1.780
    1LIG      C   18   0.642   1.291   1.644
    1LIG      O   19   0.746   1.247   1.594
    1LIG      C   20   0.526   1.326   1.554
    1LIG     Cl   21   1.359   1.272   1.663
    1LIG      H   22   0.434   1.283   1.593
    1LIG      H   23   1.679   1.169   2.023
    1LIG      H   24   1.616   1.259   1.793
    1LIG      H   25   1.502   1.062   2.168
    1LIG      H   26   1.148   1.309   2.037
    1LIG      H   27   0.957   1.215   2.169
    1LIG      H   28   0.718   1.193   2.178
    1LIG      H   29   0.892   1.333   1.754
    1LIG      H   30   0.539   1.344   1.815
    1LIG      C   31   0.545   1.274   1.408
    1LIG      H   32   0.518   1.435   1.561
    1LIG      H   33   0.627   1.332   1.364
    1LIG      H   34   0.569   1.168   1.405
    1LIG      H   35   0.455   1.292   1.348
    1SOL     OW   36   3.013   2.961   0.589
    1SOL    HW1   37   3.061   2.959   0.507
    1SOL    HW2   38   3.072   2.919   0.652
    1SOL     OW   39   1.559   1.827   0.141
    1SOL    HW1   40   1.566   1.918   0.111
    1SOL    HW2   41   1.517   1.781   0.069
    1SOL     OW   42   2.054   0.702   0.422
    1SOL    HW1   43   2.008   0.633   0.374
    1SOL    HW2   44   2.017   0.784   0.388
    1SOL     OW   45   1.951   4.220   1.792
    1SOL    HW1   46   1.913   4.286   1.734
    1SOL    HW2   47   2.028   4.187   1.744
    1SOL     OW   48   2.676   0.944   1.548
    1SOL    HW1   49   2.626   0.941   1.629
    1SOL    HW2   50   2.670   0.855   1.513
    1SOL     OW   51   3.134   1.146   0.811
    1SOL    HW1   52   3.067   1.211   0.832
    1SOL    HW2   53   3.085   1.071   0.778
    1SOL     OW   54   2.407   1.987   0.955
    1SOL    HW1   55   2.442   2.027   0.875
    1SOL    HW2   56   2.315   1.972   0.936
    1SOL     OW   57   3.222   3.336   2.133
    1SOL    HW1   58   3.174   3.405   2.178
    1SOL    HW2   59   3.154   3.281   2.094
    1SOL     OW   60   3.397   2.601   2.759
    1SOL    HW1   61   3.356   2.521   2.792
    1SOL    HW2   62   3.365   2.670   2.816
    1SOL     OW   63  -0.014   3.071   0.926
    1SOL    HW1   64  -0.009   2.976   0.913
    1SOL    HW2   65  -0.106   3.087   0.945
    1SOL     OW   66   2.943   0.893   0.225
    1SOL    HW1   67   2.864   0.862   0.268
    1SOL    HW2   68   3.015   0.855   0.275
    1SOL     OW   69   2.578   1.234   0.156
    1SOL    HW1   70   2.600   1.281   0.075
    1SOL    HW2   71   2.522   1.295   0.204
    1SOL     OW   72   3.116   0.532   3.438
    1SOL    HW1   73   3.162   0.449   3.453
    1SOL    HW2   74   3.023   0.510   3.447
    1SOL     OW   75   0.657   2.341   1.822
    1SOL    HW1   76   0.582   2.334   1.763
    1SOL    HW2   77   0.666   2.435   1.838
    1SOL     OW   78   0.555   4.159   0.460
    1SOL    HW1   79   0.625   4.181   0.399
    1SOL    HW2   80   0.594   4.098   0.521
    1SOL     OW   81   1.651   1.196   0.981
    1SOL    HW1   82   1.559   1.176   0.964
    1SOL    HW2   83   1.694   1.187   0.897
    1SOL     OW   84   1.442   2.618   3.216
    1SOL    HW1   85   1.373   2.552   3.226
    1SOL    HW2   86   1.397   2.702   3.227
    1SOL     OW   87   3.366   1.480   2.179
    1SOL    HW1   88   3.439   1.446   2.231
    1SOL    HW2   89   3.406   1.506   2.096
    1SOL     OW   90   3.399   3.630   2.404
    1SOL    HW1   91   3.334   3.578   2.358
    1SOL    HW2   92   3.401   3.593   2.492
    1SOL     OW   93   0.037   1.528   1.411
    1SOL    HW1   94   0.053   1.450   1.357
    1SOL    HW2   95  -0.057   1.525   1.431
    1SOL     OW   96   3.437   3.491   2.661
    1SOL    HW1   97   3.368   3.554   2.679
    1SOL    HW2   98   3.407   3.410   2.702
    1SOL     OW   99   1.480   0.263   0.634
    1SOL    HW1  100   1.483   0.172   0.663
    1SOL    HW2  101   1.431   0.309   0.703
    1SOL     OW  102   2.862   3.173   2.929
    1SOL    HW1  103   2.909   3.187   3.011
    1SOL    HW2  104   2.805   3.250   2.921
    1SOL     OW  105   3.480   3.361   3.080
    1SOL    HW1  106   3.460   3.273   3.048
    1SOL    HW2  107   3.555   3.349   3.138
    1SOL     OW  108   0.394   3.343   1.780
    1SOL    HW1  109   0.321   3.280   1.778
    1SOL    HW2  110   0.472   3.289   1.795
    1SOL     OW  111   1.178   3.678   3.028
    1SOL    HW1  112   1.170   3.735   2.951
    1SOL    HW2  113   1.268   3.645   3.024
    1SOL     OW  114   0.457   0.890   0.157
    1SOL    HW1  115   0.541   0.932   0.135
    1SOL    HW2  116   0.467   0.862   0.248
    1SOL     OW  117   3.077   4.079   0.304
    1SOL    HW1  118   3.028   4.119   0.376
    1SOL    HW2  119   3.162   4.122   0.306
    1SOL     OW  120   3.011   2.748   2.614
    1SOL    HW1  121   3.062   2.682   2.567
    1SOL    HW2  122   3.061   2.829   2.603
    1SOL     OW  123   0.602   3.211   1.988
    1SOL    HW1  124   0.520   3.236   2.031
    1SOL    HW2  125   0.641   3.293   1.960
    1SOL     OW  126   0.156   3.871   0.104
    1SOL    HW1  127   0.080   3.928   0.090
    1SOL    HW2  128   0.126   3.804   0.165
    1SOL     OW  129   0.869   0.970   1.689
    1SOL    HW1  130   0.961   0.990   1.706
    1SOL    HW2  131   0.840   1.038   1.629
    1SOL     OW  132   3.002   3.628   0.083
    1SOL    HW1  133   3.022   3.721   0.098
    1SOL    HW2  134   3.064   3.581   0.138
    1SOL     OW  135   0.060   2.846   2.432
    1SOL    HW1  136   0.154   2.842   2.452
    1SOL    HW2  137   0.038   2.758   2.403
    1SOL     OW  138   3.624   4.122   0.825
    1SOL    HW1  139   3.577   4.050   0.867
    1SOL    HW2  140   3.575   4.201   0.848
    1SOL     OW  141   3.018   1.967   2.627
    1SOL    HW1  142   3.009   1.897   2.562
    1SOL    HW2  143   2.932   1.972   2.669
    1SOL     OW  144   3.270   0.857   0.236
    1SOL    HW1  145   3.294   0.938   0.281
    1SOL    HW2  146   3.290   0.874   0.144
    1SOL     OW  147   3.660   3.584   1.601
    1SOL    HW1  148   3.701   3.643   1.538
    1SOL    HW2  149   3.566   3.606   1.596
    1SOL     OW  150   0.077   0.435   0.164
    1SOL    HW1  151   0.086   0.504   0.099
    1SOL    HW2  152   0.071   0.354   0.113
    1SOL     OW  153   2.128   2.140   2.584
    1SOL    HW1  154   2.218   2.109   2.574
    1SOL    HW2  155   2.074   2.063   2.572
    1SOL     OW  156   1.094   1.375   0.324
    1SOL    HW1  157   1.044   1.388   0.404
    1SOL    HW2  158   1.150   1.452   0.317
    1SOL     OW  159   0.374   0.823   0.588
    1SOL    HW1  160   0.329   0.740   0.603
    1SOL    HW2  161   0.464   0.808   0.617
    1SOL     OW  162   1.967   3.313   0.245
    1SOL    HW1  163   1.879   3.287   0.274
    1SOL    HW2  164   1.954   3.350   0.158
    1SOL     OW  165   1.910   0.532   0.892
    1SOL    HW1  166   1.870   0.458   0.846
    1SOL    HW2  167   2.004   0.523   0.875
    1SOL     OW  168   2.221   1.158   1.257
    1SOL    HW1  169   2.285   1.103   1.301
    1SOL    HW2  170   2.160   1.185   1.326
    1SOL     OW  171   0.439   3.034   2.491
    1SOL    HW1  172   0.362   3.080   2.525
    1SOL    HW2  173   0.409   2.943   2.480
    1SOL     OW  174   2.547   2.569   0.123
    1SOL    HW1  175   2.593   2.650   0.102
    1SOL    HW2  176   2.512   2.538   0.039
    1SOL     OW  177   1.853   1.002   0.580
    1SOL    HW1  178   1.836   0.919   0.625
    1SOL    HW2  179   1.900   0.977   0.501
    1SOL     OW  180   0.603   3.817   1.108
    1SOL    HW1  181   0.676   3.812   1.047
    1SOL    HW2  182   0.634   3.772   1.187
    1SOL     OW  183   2.176   0.019   2.140
    1SOL    HW1  184   2.183   0.088   2.074
    1SOL    HW2  185   2.100   0.043   2.192
    1SOL     OW  186   2.739   3.161   1.960
    1SOL    HW1  187   2.799   3.093   1.931
    1SOL    HW2  188   2.773   3.188   2.046
    1SOL     OW  189   1.502   0.353   1.485
    1SOL    HW1  190   1.411   0.373   1.463
    1SOL    HW2  191   1.523   0.414   1.556
    1SOL     OW  192   2.824   1.110   1.394
    1SOL    HW1  193   2.848   1.078   1.307
    1SOL    HW2  194   2.767   1.042   1.430
    1SOL     OW  195   2.926   4.124   2.559
    1SOL    HW1  196   2.861   4.137   2.629
    1SOL    HW2  197   2.887   4.169   2.484
    1SOL     OW  198   3.485   2.851   1.700
    1SOL    HW1  199   3.497   2.773   1.646
    1SOL    HW2  200   3.399   2.838   1.741
    1SOL     OW  201   0.559   1.180   1.038
    1SOL    HW1  202   0.487   1.150   0.983
    1SOL    HW2  203   0.628   1.114   1.025
    1SOL     OW  204   1.073   1.101   0.787
    1SOL    HW1  205   1.090   1.040   0.715
    1SOL    HW2  206   1.096   1.052   0.865
    1SOL     OW  207   0.048   0.924   1.218
    1SOL    HW1  208   0.123   0.973   1.251
    1SOL    HW2  209  -0.014   0.992   1.189
    1SOL     OW  210   3.509   2.337   1.363
    1SOL    HW1  211   3.442   2.404   1.350
    1SOL    HW2  212   3.552   2.329   1.278
    1SOL     OW  213   0.731   2.913   1.032
    1SOL    HW1  214   0.754   2.864   1.110
    1SOL    HW2  215   0.761   3.002   1.050
    1SOL     OW  216   1.659   1.973   0.892
    1SOL    HW1  217   1.572   2.006   0.870
    1SOL    HW2  218   1.647   1.933   0.978
    1SOL     OW  219   2.224   3.792   0.655
    1SOL    HW1  220   2.149   3.849   0.641
    1SOL    HW2  221   2.193   3.725   0.715
    1SOL     OW  222   0.568   0.551   1.777
    1SOL    HW1  223   0.557   0.573   1.869
    1SOL    HW2  224   0.551   0.634   1.731
    1SOL     OW  225   2.322   0.293   0.528
    1SOL    HW1  226   2.237   0.293   0.572
    1SOL    HW2  227   2.344   0.386   0.518
    1SOL     OW  228   1.332   1.679   1.721
    1SOL    HW1  229   1.420   1.708   1.699
    1SOL    HW2  230   1.337   1.657   1.814
    1SOL     OW  231   1.758   3.079   2.302
    1SOL    HW1  232   1.770   3.083   2.207
    1SOL    HW2  233   1.731   3.168   2.326
    1SOL     OW  234   1.542   0.977   2.976
    1SOL    HW1  235   1.599   0.907   3.008
    1SOL    HW2  236   1.454   0.949   3.001
    1SOL     OW  237   1.564   2.816   2.335
    1SOL    HW1  238   1.656   2.823   2.309
    1SOL    HW2  239   1.515   2.835   2.255
    1SOL     OW  240   1.595   0.162   2.132
    1SOL    HW1  241   1.532   0.230   2.158
    1SOL    HW2  242   1.640   0.139   2.213
    1SOL     OW  243   3.082   2.161   3.386
    1SOL    HW1  244   3.134   2.238   3.362
    1SOL    HW2  245   3.145   2.088   3.382
    1SOL     OW  246   1.394   0.728   0.213
    1SOL    HW1  247   1.391   0.646   0.162
    1SOL    HW2  248   1.391   0.699   0.304
    1SOL     OW  249   1.699   1.279   1.500
    1SOL    HW1  250   1.611   1.297   1.467
    1SOL    HW2  251   1.699   1.186   1.521
    1SOL     OW  252   0.458   0.139   1.883
    1SOL    HW1  253   0.535   0.189   1.907
    1SOL    HW2  254   0.478   0.104   1.796
    1SOL     OW  255   1.997   2.107   2.298
    1SOL    HW1  256   2.035   2.052   2.367
    1SOL    HW2  257   2.067   2.117   2.234
    1SOL     OW  258   1.173   3.062   2.919
    1SOL    HW1  259   1.161   3.081   2.826
    1SOL    HW2  260   1.086   3.078   2.958
    1SOL     OW  261   3.038   3.399   1.787
    1SOL    HW1  262   3.117   3.416   1.839
    1SOL    HW2  263   3.006   3.486   1.765
    1SOL     OW  264   1.531   0.116   1.825
    1SOL    HW1  265   1.511   0.076   1.909
    1SOL    HW2  266   1.591   0.187   1.845
    1SOL     OW  267   0.037   1.100   1.648
    1SOL    HW1  268   0.058   1.118   1.556
    1SOL    HW2  269   0.108   1.141   1.697
    1SOL     OW  270   0.669   0.435   0.972
    1SOL    HW1  271   0.705   0.470   0.891
    1SOL    HW2  272   0.598   0.377   0.944
    1SOL     OW  273   2.859   3.909   1.107
    1SOL    HW1  274   2.904   3.881   1.187
    1SOL    HW2  275   2.784   3.960   1.139
    1SOL     OW  276   1.487   2.655   0.463
    1SOL    HW1  277   1.408   2.601   0.462
    1SOL    HW2  278   1.523   2.641   0.551
    1SOL     OW  279   2.172   2.239   1.395
    1SOL    HW1  280   2.148   2.321   1.439
    1SOL    HW2  281   2.107   2.176   1.425
    1SOL     OW  282   1.378   2.886   1.196
    1SOL    HW1  283   1.294   2.930   1.211
    1SOL    HW2  284   1.443   2.954   1.216
    1SOL     OW  285   0.752   0.947   2.997
    1SOL    HW1  286   0.783   0.856   3.001
    1SOL    HW2  287   0.731   0.969   3.088
    1SOL     OW  288   0.163   1.272   2.267
    1SOL    HW1  289   0.172   1.189   2.314
    1SOL    HW2  290   0.247   1.285   2.224
    1SOL     OW  291   0.104   2.050   2.882
    1SOL    HW1  292   0.188   2.094   2.886
    1SOL    HW2  293   0.108   1.996   2.803
    1SOL     OW  294   0.431   2.903   1.685
    1SOL    HW1  295   0.394   2.829   1.734
    1SOL    HW2  296   0.355   2.947   1.648
    1SOL     OW  297   0.731   0.597   0.116
    1SOL    HW1  298   0.703   0.555   0.198
    1SOL    HW2  299   0.650   0.624   0.073
    1SOL     OW  300   0.102   1.435   1.694
    1SOL    HW1  301   0.126   1.526   1.712
    1SOL    HW2  302   0.092   1.432   1.599
    1SOL     OW  303   1.367   0.503   1.187
    1SOL    HW1  304   1.289   0.450   1.171
    1SOL    HW2  305   1.361   0.526   1.280
    1SOL     OW  306   1.202   3.435   0.231
    1SOL    HW1  307   1.150   3.357   0.210
    1SOL    HW2  308   1.139   3.506   0.235
    1SOL     OW  309   0.358   2.908   2.800
    1SOL    HW1  310   0.366   2.901   2.705
    1SOL    HW2  311   0.288   2.972   2.814
    1SOL     OW  312   1.199   0.284   1.085
    1SOL    HW1  313   1.206   0.210   1.144
    1SOL    HW2  314   1.106   0.307   1.087
    1SOL     OW  315   1.213   3.487   1.052
    1SOL    HW1  316   1.282   3.553   1.052
    1SOL    HW2  317   1.258   3.405   1.070
    1SOL     OW  318   2.450   0.792   1.670
    1SOL    HW1  319   2.492   0.831   1.746
    1SOL    HW2  320   2.473   0.699   1.674
    1SOL     OW  321   1.930   1.316   1.017
    1SOL    HW1  322   1.940   1.385   1.082
    1SOL    HW2  323   1.842   1.282   1.032
    1SOL     OW  324   0.967   1.646   1.512
    1SOL    HW1  325   0.965   1.722   1.453
    1SOL    HW2  326   0.880   1.606   1.502
    1SOL     OW  327   2.411   2.007   1.917
    1SOL    HW1  328   2.497   2.048   1.908
    1SOL    HW2  329   2.416   1.957   1.998
    1SOL     OW  330   2.883   2.765   3.402
    1SOL    HW1  331   2.820   2.782   3.332
    1SOL    HW2  332   2.878   2.843   3.458
    1SOL     OW  333   2.349   3.829   0.066
    1SOL    HW1  334   2.391   3.812  -0.018
    1SOL    HW2  335   2.421   3.832   0.129
    1SOL     OW  336   1.445   3.214   2.416
    1SOL    HW1  337   1.461   3.141   2.476
    1SOL    HW2  338   1.453   3.292   2.471
    1SOL     OW  339   2.169   3.912   1.324
    1SOL    HW1  340   2.243   3.913   1.385
    1SOL    HW2  341   2.147   3.819   1.316
    1SOL     OW  342   2.534   2.726   3.344
    1SOL    HW1  343   2.583   2.723   3.262
    1SOL    HW2  344   2.548   2.815   3.377
    1SOL     OW  345   1.850   1.495   1.242
    1SOL    HW1  346   1.835   1.520   1.333
    1SOL    HW2  347   1.769   1.518   1.197
    1SOL     OW  348   3.248   0.330   1.447
    1SOL    HW1  349   3.302   0.407   1.462
    1SOL    HW2  350   3.158   0.363   1.440
    1SOL     OW  351   3.190   1.342   2.831
    1SOL    HW1  352   3.152   1.410   2.775
    1SOL    HW2  353   3.232   1.282   2.769
    1SOL     OW  354   1.372   1.755   1.291
    1SOL    HW1  355   1.305   1.792   1.234
    1SOL    HW2  356   1.327   1.687   1.340
    1SOL     OW  357   0.554   0.981   1.947
    1SOL    HW1  358   0.637   0.933   1.946
    1SOL    HW2  359   0.580   1.073   1.950
    1SOL     OW  360   1.201   2.256   1.824
    1SOL    HW1  361   1.202   2.311   1.902
    1SOL    HW2  362   1.110   2.260   1.793
    1SOL     OW  363   1.256   2.535   0.418
    1SOL    HW1  364   1.193   2.491   0.475
    1SOL    HW2  365   1.203   2.573   0.348
    1SOL     OW  366   3.232   0.517   2.321
    1SOL    HW1  367   3.254   0.532   2.230
    1SOL    HW2  368   3.290   0.446   2.349
    1SOL     OW  369   1.918   4.157   2.600
    1SOL    HW1  370   1.888   4.180   2.688
    1SOL    HW2  371   1.896   4.234   2.547
    1SOL     OW  372   0.665   3.726   1.954
    1SOL    HW1  373   0.644   3.751   2.044
    1SOL    HW2  374   0.668   3.809   1.906
    1SOL     OW  375   2.406   2.606   0.383
    1SOL    HW1  376   2.343   2.675   0.366
    1SOL    HW2  377   2.442   2.584   0.297
    1SOL     OW  378   0.538   2.500   2.856
    1SOL    HW1  379   0.511   2.417   2.816
    1SOL    HW2  380   0.506   2.495   2.945
    1SOL     OW  381   3.495   3.197   3.380
    1SOL    HW1  382   3.433   3.146   3.328
    1SOL    HW2  383   3.488   3.160   3.468
    1SOL     OW  384   0.083   2.574   2.358
    1SOL    HW1  385   0.096   2.571   2.453
    1SOL    HW2  386   0.133   2.499   2.324
    1SOL     OW  387   1.634   0.580   1.660
    1SOL    HW1  388   1.728   0.597   1.650
    1SOL    HW2  389   1.595   0.667   1.669
    1SOL     OW  390   3.647   2.143   1.522
    1SOL    HW1  391   3.593   2.064   1.515
    1SOL    HW2  392   3.599   2.210   1.473
    1SOL     OW  393   0.773   0.544   0.754
    1SOL    HW1  394   0.783   0.460   0.709
    1SOL    HW2  395   0.702   0.588   0.707
    1SOL     OW  396   1.841   4.023   0.468
    1SOL    HW1  397   1.762   3.975   0.444
    1SOL    HW2  398   1.869   4.064   0.386
    1SOL     OW  399   0.470   1.553   1.974
    1SOL    HW1  400   0.427   1.622   1.924
    1SOL    HW2  401   0.431   1.472   1.940
    1SOL     OW  402   0.856   0.372   1.792
    1SOL    HW1  403   0.761   0.369   1.805
    1SOL    HW2  404   0.878   0.286   1.757
    1SOL     OW  405   0.621   2.228   2.113
    1SOL    HW1  406   0.638   2.292   2.044
    1SOL    HW2  407   0.705   2.182   2.124
    1SOL     OW  408   3.403   1.494   1.509
    1SOL    HW1  409   3.336   1.551   1.472
    1SOL    HW2  410   3.396   1.507   1.604
    1SOL     OW  411   2.485   1.711   0.385
    1SOL    HW1  412   2.554   1.705   0.451
    1SOL    HW2  413   2.531   1.738   0.305
    1SOL     OW  414   3.591   1.122   2.074
    1SOL    HW1  415   3.584   1.182   1.999
    1SOL    HW2  416   3.617   1.179   2.146
    1SOL     OW  417   1.059   0.476   0.398
    1SOL    HW1  418   1.026   0.437   0.479
    1SOL    HW2  419   1.002   0.441   0.329
    1SOL     OW  420   3.539   3.971   2.257
    1SOL    HW1  421   3.573   3.894   2.210
    1SOL    HW2  422   3.445   3.970   2.240
    1SOL     OW  423   2.329   3.501   2.406
    1SOL    HW1  424   2.284   3.419   2.425
    1SOL    HW2  425   2.397   3.477   2.343
    1SOL     OW  426   1.526   1.551   1.111
    1SOL    HW1  427   1.568   1.536   1.027
    1SOL    HW2  428   1.476   1.631   1.100
    1SOL     OW  429   1.914   1.634   1.803
    1SOL    HW1  430   1.925   1.633   1.708
    1SOL    HW2  431   1.897   1.543   1.827
    1SOL     OW  432   3.390   0.446   2.856
    1SOL    HW1  433   3.463   0.422   2.912
    1SOL    HW2  434   3.313   0.406   2.897
    1SOL     OW  435   0.664   1.549   3.019
    1SOL    HW1  436   0.751   1.523   3.047
    1SOL    HW2  437   0.623   1.468   2.989
    1SOL     OW  438   0.197   4.169   1.967
    1SOL    HW1  439   0.154   4.245   1.929
    1SOL    HW2  440   0.217   4.195   2.057
    1SOL     OW  441   0.496   0.441   3.071
    1SOL    HW1  442   0.587   0.472   3.071
    1SOL    HW2  443   0.491   0.379   3.144
    1SOL     OW  444   2.010   3.100   3.104
    1SOL    HW1  445   1.977   3.032   3.163
    1SOL    HW2  446   2.041   3.170   3.162
    1SOL     OW  447   0.508   1.290   2.433
    1SOL    HW1  448   0.492   1.276   2.339
    1SOL    HW2  449   0.512   1.386   2.441
    1SOL     OW  450   0.595   1.340   2.897
    1SOL    HW1  451   0.657   1.304   2.833
    1SOL    HW2  452   0.555   1.263   2.938
    1SOL     OW  453   1.310   2.101   0.026
    1SOL    HW1  454   1.247   2.040   0.065
    1SOL    HW2  455   1.383   2.102   0.088
    1SOL     OW  456   2.146   1.377   2.918
    1SOL    HW1  457   2.200   1.407   2.991
    1SOL    HW2  458   2.056   1.389   2.948
    1SOL     OW  459   2.999   0.453   0.301
    1SOL    HW1  460   3.029   0.518   0.364
    1SOL    HW2  461   3.007   0.495   0.216
    1SOL     OW  462   1.606   1.443  -0.003
    1SOL    HW1  463   1.589   1.418  -0.094
    1SOL    HW2  464   1.640   1.364   0.038
    1SOL     OW  465   3.612   1.000   0.632
    1SOL    HW1  466   3.641   0.943   0.561
    1SOL    HW2  467   3.669   1.076   0.627
    1SOL     OW  468   1.423   3.799   1.534
    1SOL    HW1  469   1.344   3.804   1.588
    1SOL    HW2  470   1.481   3.865   1.572
    1SOL     OW  471   0.847   1.207   0.220
    1SOL    HW1  472   0.776   1.225   0.281
    1SOL    HW2  473   0.919   1.264   0.248
    1SOL     OW  474   0.217   2.041   1.078
    1SOL    HW1  475   0.265   1.960   1.092
    1SOL    HW2  476   0.224   2.057   0.984
    1SOL     OW  477   2.011   3.968   2.191
    1SOL    HW1  478   2.033   4.059   2.212
    1SOL    HW2  479   2.073   3.916   2.242
    1SOL     OW  480   2.315   2.579   1.110
    1SOL    HW1  481   2.369   2.643   1.063
    1SOL    HW2  482   2.238   2.629   1.137
    1SOL     OW  483   0.018   0.516   1.346
    1SOL    HW1  484  -0.067   0.525   1.391
    1SOL    HW2  485   0.083   0.532   1.414
    1SOL     OW  486   0.888   2.210   1.810
    1SOL    HW1  487   0.892   2.155   1.731
    1SOL    HW2  488   0.799   2.245   1.810
    1SOL     OW  489   2.875   1.257   0.847
    1SOL    HW1  490   2.818   1.257   0.769
    1SOL    HW2  491   2.860   1.172   0.888
    1SOL     OW  492   1.363   2.898   1.764
    1SOL    HW1  493   1.352   2.916   1.671
    1SOL    HW2  494   1.392   2.981   1.802
    1SOL     OW  495   1.015   2.778   1.441
    1SOL    HW1  496   0.977   2.701   1.484
    1SOL    HW2  497   1.046   2.833   1.513
    1SOL     OW  498   0.799   2.080   3.349
    1SOL    HW1  499   0.842   2.071   3.264
    1SOL    HW2  500   0.785   1.990   3.379
    1SOL     OW  501   1.278   2.040   3.274
    1SOL    HW1  502   1.203   2.060   3.330
    1SOL    HW2  503   1.338   2.113   3.288
    1SOL     OW  504   2.895   1.439   1.047
    1SOL    HW1  505   2.910   1.523   1.003
    1SOL    HW2  506   2.852   1.385   0.981
    1SOL     OW  507   1.403   1.048   0.995
    1SOL    HW1  508   1.465   0.997   1.048
    1SOL    HW2  509   1.318   1.007   1.012
    1SOL     OW  510   3.296   4.191   2.836
    1SOL    HW1  511   3.334   4.260   2.781
    1SOL    HW2  512   3.251   4.133   2.775
    1SOL     OW  513   0.850   3.551   1.839
    1SOL    HW1  514   0.799   3.603   1.901
    1SOL    HW2  515   0.932   3.532   1.886
    1SOL     OW  516   1.529   1.153   0.300
    1SOL    HW1  517   1.434   1.159   0.292
    1SOL    HW2  518   1.544   1.123   0.389
    1SOL     OW  519   2.368   1.987   2.556
    1SOL    HW1  520   2.363   1.906   2.607
    1SOL    HW2  521   2.461   1.994   2.532
    1SOL     OW  522   0.308   2.714   1.842
    1SOL    HW1  523   0.291   2.685   1.752
    1SOL    HW2  524   0.299   2.634   1.895
    1SOL     OW  525   0.405   0.485   1.110
    1SOL    HW1  526   0.311   0.483   1.089
    1SOL    HW2  527   0.445   0.429   1.044
    1SOL     OW  528   1.378   0.564   1.932
    1SOL    HW1  529   1.467   0.594   1.948
    1SOL    HW2  530   1.347   0.616   1.857
    1SOL     OW  531   0.580   0.045   0.826
    1SOL    HW1  532   0.614   0.011   0.909
    1SOL    HW2  533   0.516   0.112   0.852
    1SOL     OW  534   2.311   2.312   0.997
    1SOL    HW1  535   2.253   2.253   1.044
    1SOL    HW2  536   2.292   2.399   1.033
    1SOL     OW  537   2.057   3.726   2.442
    1SOL    HW1  538   2.113   3.773   2.380
    1SOL    HW2  539   1.999   3.792   2.478
    1SOL     OW  540   1.546   2.504   1.893
    1SOL    HW1  541   1.528   2.508   1.987
    1SOL    HW2  542   1.586   2.418   1.880
    1SOL     OW  543   2.308   1.442   1.988
    1SOL    HW1  544   2.309   1.537   2.002
    1SOL    HW2  545   2.396   1.421   1.956
    1SOL     OW  546   0.411   3.842   2.638
    1SOL    HW1  547   0.380   3.757   2.668
    1SOL    HW2  548   0.404   3.899   2.714
    1SOL     OW  549   1.608   1.562   2.738
    1SOL    HW1  550   1.627   1.619   2.813
    1SOL    HW2  551   1.674   1.585   2.673
    1SOL     OW  552   0.810   3.715   2.809
    1SOL    HW1  553   0.901   3.693   2.792
    1SOL    HW2  554   0.786   3.776   2.739
    1SOL     OW  555   3.198   4.018   3.034
    1SOL    HW1  556   3.217   4.060   2.950
    1SOL    HW2  557   3.152   4.085   3.084
    1SOL     OW  558   1.919   0.918   0.322
    1SOL    HW1  559   1.829   0.889   0.311
    1SOL    HW2  560   1.931   0.985   0.254
    1SOL     OW  561   2.987   1.422   0.640
    1SOL    HW1  562   3.010   1.402   0.731
    1SOL    HW2  563   3.008   1.514   0.629
    1SOL     OW  564   0.762   3.167   1.153
    1SOL    HW1  565   0.837   3.218   1.182
    1SOL    HW2  566   0.707   3.157   1.230
    1SOL     OW  567   0.397   2.970   2.111
    1SOL    HW1  568   0.317   2.925   2.135
    1SOL    HW2  569   0.371   3.061   2.099
    1SOL     OW  570   1.844   0.941   2.265
    1SOL    HW1  571   1.886   1.025   2.281
    1SOL    HW2  572   1.884   0.881   2.329
    1SOL     OW  573   2.920   3.380   3.351
    1SOL    HW1  574   2.879   3.299   3.321
    1SOL    HW2  575   2.998   3.389   3.298
    1SOL     OW  576   3.425   3.764   0.670
    1SOL    HW1  577   3.421   3.832   0.603
    1SOL    HW2  578   3.518   3.745   0.679
    1SOL     OW  579   3.193   0.023   1.367
    1SOL    HW1  580   3.130   0.021   1.438
    1SOL    HW2  581   3.225   0.113   1.366
    1SOL     OW  582   2.910   2.904   2.160
    1SOL    HW1  583   2.929   2.881   2.251
    1SOL    HW2  584   2.822   2.942   2.163
    1SOL     OW  585   2.233   3.212   1.289
    1SOL    HW1  586   2.283   3.215   1.371
    1SOL    HW2  587   2.228   3.118   1.268
    1SOL     OW  588   3.250   3.671   2.726
    1SOL    HW1  589   3.167   3.672   2.774
    1SOL    HW2  590   3.309   3.726   2.778
    1SOL     OW  591   2.215   0.414   2.811
    1SOL    HW1  592   2.122   0.399   2.828
    1SOL    HW2  593   2.237   0.490   2.866
    1SOL     OW  594   2.002   3.454   2.469
    1SOL    HW1  595   2.013   3.546   2.444
    1SOL    HW2  596   2.028   3.451   2.561
    1SOL     OW  597   0.027   2.562   2.655
    1SOL    HW1  598   0.088   2.571   2.728
    1SOL    HW2  599  -0.056   2.597   2.689
    1SOL     OW  600   1.402   2.093   1.731
    1SOL    HW1  601   1.427   2.135   1.649
    1SOL    HW2  602   1.350   2.159   1.777
    1SOL     OW  603   3.410   0.277   1.228
    1SOL    HW1  604   3.488   0.229   1.258
    1SOL    HW2  605   3.353   0.281   1.305
    1SOL     OW  606   1.517   3.465   2.507
    1SOL    HW1  607   1.515   3.504   2.594
    1SOL    HW2  608   1.546   3.535   2.450
    1SOL     OW  609   0.610   1.109   0.623
    1SOL    HW1  610   0.534   1.129   0.680
    1SOL    HW2  611   0.682   1.158   0.662
    1SOL     OW  612   2.510   1.606   1.619
    1SOL    HW1  613   2.545   1.546   1.553
    1SOL    HW2  614   2.468   1.675   1.569
    1SOL     OW  615   1.166   1.665   0.819
    1SOL    HW1  616   1.241   1.697   0.769
    1SOL    HW2  617   1.159   1.572   0.797
    1SOL     OW  618   1.164   2.384   1.462
    1SOL    HW1  619   1.115   2.453   1.508
    1SOL    HW2  620   1.170   2.415   1.372
    1SOL     OW  621   2.040   3.274   3.320
    1SOL    HW1  622   2.104   3.344   3.306
    1SOL    HW2  623   1.967   3.317   3.365
    1SOL     OW  624   3.465   1.909   3.055
    1SOL    HW1  625   3.514   1.831   3.081
    1SOL    HW2  626   3.440   1.892   2.964
    1SOL     OW  627   3.134   4.012   2.685
    1SOL    HW1  628   3.186   3.965   2.621
    1SOL    HW2  629   3.072   4.063   2.633
    1SOL     OW  630   1.397   3.550   2.779
    1SOL    HW1  631   1.445   3.482   2.826
    1SOL    HW2  632   1.322   3.504   2.741
    1SOL     OW  633   0.856   1.608   0.125
    1SOL    HW1  634   0.797   1.536   0.105
    1SOL    HW2  635   0.944   1.571   0.119
    1SOL     OW  636   1.862   2.866   0.284
    1SOL    HW1  637   1.925   2.809   0.329
    1SOL    HW2  638   1.799   2.890   0.353
    1SOL     OW  639   3.384   0.957   2.008
    1SOL    HW1  640   3.442   1.023   2.046
    1SOL    HW2  641   3.387   0.974   1.914
    1SOL     OW  642   2.248   2.098   0.060
    1SOL    HW1  643   2.329   2.128   0.101
    1SOL    HW2  644   2.223   2.020   0.111
    1SOL     OW  645   2.980   1.520   3.365
    1SOL    HW1  646   2.918   1.564   3.423
    1SOL    HW2  647   3.021   1.453   3.420
    1SOL     OW  648   3.248   4.053   0.986
    1SOL    HW1  649   3.247   4.148   0.976
    1SOL    HW2  650   3.337   4.027   0.962
    1SOL     OW  651   3.071   0.241   3.151
    1SOL    HW1  652   3.018   0.179   3.201
    1SOL    HW2  653   3.153   0.248   3.201
    1SOL     OW  654   3.332   0.347   3.195
    1SOL    HW1  655   3.401   0.362   3.259
    1SOL    HW2  656   3.377   0.309   3.120
    1SOL     OW  657   2.730   1.731   2.009
    1SOL    HW1  658   2.781   1.807   1.984
    1SOL    HW2  659   2.787   1.656   1.991
    1SOL     OW  660   1.802   0.412   0.391
    1SOL    HW1  661   1.847   0.464   0.324
    1SOL    HW2  662   1.850   0.329   0.393
    1SOL     OW  663   2.071   0.199   3.262
    1SOL    HW1  664   2.046   0.156   3.344
    1SOL    HW2  665   2.058   0.133   3.195
    1SOL     OW  666   0.736   3.279   0.556
    1SOL    HW1  667   0.827   3.252   0.561
    1SOL    HW2  668   0.729   3.352   0.618
    1SOL     OW  669   2.451   2.832   2.039
    1SOL    HW1  670   2.463   2.900   1.974
    1SOL    HW2  671   2.519   2.849   2.105
    1SOL     OW  672   0.566   4.175   2.601
    1SOL    HW1  673   0.630   4.244   2.590
    1SOL    HW2  674   0.537   4.184   2.692
    1SOL     OW  675   3.576   0.358   0.414
    1SOL    HW1  676   3.610   0.379   0.327
    1SOL    HW2  677   3.574   0.442   0.460
    1SOL     OW  678   0.445   1.646   2.562
    1SOL    HW1  679   0.359   1.635   2.601
    1SOL    HW2  680   0.435   1.614   2.473
    1SOL     OW  681   1.218   2.381   3.137
    1SOL    HW1  682   1.200   2.295   3.174
    1SOL    HW2  683   1.288   2.367   3.074
    1SOL     OW  684   0.059   3.563   3.328
    1SOL    HW1  685   0.087   3.550   3.419
    1SOL    HW2  686   0.061   3.475   3.290
    1SOL     OW  687   2.900   3.111   1.449
    1SOL    HW1  688   2.899   3.161   1.367
    1SOL    HW2  689   2.837   3.157   1.505
    1SOL     OW  690   1.211   0.264   2.635
    1SOL    HW1  691   1.144   0.196   2.644
    1SOL    HW2  692   1.259   0.240   2.556
    1SOL     OW  693   1.595   1.815   1.402
    1SOL    HW1  694   1.592   1.789   1.494
    1SOL    HW2  695   1.505   1.803   1.371
    1SOL     OW  696   1.626   4.013   2.627
    1SOL    HW1  697   1.642   4.002   2.721
    1SOL    HW2  698   1.532   3.997   2.616
    1SOL     OW  699   0.736   3.432   3.187
    1SOL    HW1  700   0.781   3.493   3.130
    1SOL    HW2  701   0.643   3.446   3.169
    1SOL     OW  702   1.440   2.856   2.085
    1SOL    HW1  703   1.352   2.837   2.051
    1SOL    HW2  704   1.498   2.841   2.010
    1SOL     OW  705   0.933   1.140   1.409
    1SOL    HW1  706   0.878   1.169   1.482
    1SOL    HW2  707   0.928   1.211   1.345
    1SOL     OW  708   0.198   1.668   1.801
    1SOL    HW1  709   0.174   1.621   1.881
    1SOL    HW2  710   0.254   1.739   1.831
    1SOL     OW  711   2.730   3.275   2.202
    1SOL    HW1  712   2.753   3.363   2.172
    1SOL    HW2  713   2.682   3.290   2.283
    1SOL     OW  714   1.834   1.095   2.968
    1SOL    HW1  715   1.889   1.026   3.003
    1SOL    HW2  716   1.802   1.059   2.885
    1SOL     OW  717   0.616   2.615   2.176
    1SOL    HW1  718   0.614   2.709   2.191
    1SOL    HW2  719   0.605   2.606   2.081
    1SOL     OW  720   2.456   4.010   0.957
    1SOL    HW1  721   2.398   4.056   0.896
    1SOL    HW2  722   2.455   3.919   0.928
    1SOL     OW  723   3.261   1.962   2.363
    1SOL    HW1  724   3.306   2.027   2.418
    1SOL    HW2  725   3.242   2.008   2.282
    1SOL     OW  726   3.345   3.562   1.794
    1SOL    HW1  727   3.387   3.482   1.828
    1SOL    HW2  728   3.321   3.540   1.704
    1SOL     OW  729   1.687   1.257   2.400
    1SOL    HW1  730   1.712   1.271   2.492
    1SOL    HW2  731   1.592   1.245   2.402
    1SOL     OW  732   2.129   3.011   0.059
    1SOL    HW1  733   2.048   2.968   0.034
    1SOL    HW2  734   2.107   3.063   0.136
    1SOL     OW  735   2.706   1.312   2.736
    1SOL    HW1  736   2.777   1.265   2.694
    1SOL    HW2  737   2.747   1.389   2.775
    1SOL     OW  738   3.013   3.941   0.868
    1SOL    HW1  739   3.089   3.985   0.907
    1SOL    HW2  740   2.950   3.936   0.940
    1SOL     OW  741   3.193   2.812   0.733
    1SOL    HW1  742   3.158   2.723   0.736
    1SOL    HW2  743   3.285   2.802   0.760
    1SOL     OW  744   0.001   3.190   0.046
    1SOL    HW1  745  -0.077   3.194   0.102
    1SOL    HW2  746   0.019   3.281   0.024
    1SOL     OW  747   2.647   1.665   0.640
    1SOL    HW1  748   2.662   1.605   0.567
    1SOL    HW2  749   2.675   1.750   0.608
    1SOL     OW  750   1.357   3.730   1.057
    1SOL    HW1  751   1.326   3.745   0.968
    1SOL    HW2  752   1.344   3.814   1.102
    1SOL     OW  753   3.512   2.347   3.448
    1SOL    HW1  754   3.578   2.278   3.454
    1SOL    HW2  755   3.560   2.424   3.418
    1SOL     OW  756   0.160   0.061   1.537
    1SOL    HW1  757   0.218   0.116   1.483
    1SOL    HW2  758   0.211   0.044   1.616
    1SOL     OW  759   2.955   2.365   2.402
    1SOL    HW1  760   2.939   2.459   2.387
    1SOL    HW2  761   3.047   2.352   2.380
    1SOL     OW  762   2.589   3.215   0.937
    1SOL    HW1  763   2.579   3.247   0.848
    1SOL    HW2  764   2.582   3.293   0.993
    1SOL     OW  765   2.263   2.812   0.292
    1SOL    HW1  766   2.175   2.842   0.315
    1SOL    HW2  767   2.317   2.891   0.294
    1SOL     OW  768   0.063   0.432   1.773
    1SOL    HW1  769   0.148   0.395   1.794
    1SOL    HW2  770   0.067   0.449   1.679
    1SOL     OW  771   2.550   3.634   2.024
    1SOL    HW1  772   2.552   3.728   2.042
    1SOL    HW2  773   2.640   3.612   2.000
    1SOL     OW  774   0.900   2.585   1.864
    1SOL    HW1  775   0.980   2.615   1.823
    1SOL    HW2  776   0.925   2.565   1.954
    1SOL     OW  777   1.989   0.859   0.829
    1SOL    HW1  778   2.079   0.846   0.859
    1SOL    HW2  779   1.991   0.944   0.785
    1SOL     OW  780   0.911   3.381   2.724
    1SOL    HW1  781   0.877   3.343   2.643
    1SOL    HW2  782   0.835   3.391   2.781
    1SOL     OW  783   2.391   3.151   3.261
    1SOL    HW1  784   2.462   3.116   3.207
    1SOL    HW2  785   2.425   3.234   3.294
    1SOL     OW  786   2.054   1.000   1.779
    1SOL    HW1  787   2.021   1.085   1.752
    1SOL    HW2  788   1.991   0.969   1.843
    1SOL     OW  789   2.270   1.265   2.234
    1SOL    HW1  790   2.185   1.220   2.231
    1SOL    HW2  791   2.291   1.282   2.143
    1SOL     OW  792   0.425   3.366   2.674
    1SOL    HW1  793   0.400   3.401   2.589
    1SOL    HW2  794   0.343   3.342   2.716
    1SOL     OW  795   0.606   0.118   1.625
    1SOL    HW1  796   0.594   0.192   1.566
    1SOL    HW2  797   0.551   0.049   1.588
    1SOL     OW  798   3.553   3.738   3.186
    1SOL    HW1  799   3.603   3.682   3.246
    1SOL    HW2  800   3.465   3.701   3.187
    1SOL     OW  801   1.698   2.228   1.895
    1SOL    HW1  802   1.781   2.196   1.930
    1SOL    HW2  803   1.653   2.148   1.865
    1SOL     OW  804   1.424   3.148   1.886
    1SOL    HW1  805   1.486   3.201   1.837
    1SOL    HW2  806   1.465   3.134   1.971
    1SOL     OW  807   2.821   0.264   3.327
    1SOL    HW1  808   2.807   0.358   3.316
    1SOL    HW2  809   2.843   0.254   3.420
    1SOL     OW  810   2.525   3.306   1.366
    1SOL    HW1  811   2.554   3.246   1.297
    1SOL    HW2  812   2.601   3.311   1.425
    1SOL     OW  813   2.320   0.614   0.376
    1SOL    HW1  814   2.233   0.625   0.412
    1SOL    HW2  815   2.377   0.607   0.452
    1SOL     OW  816   0.724   0.529   1.559
    1SOL    HW1  817   0.685   0.509   1.644
    1SOL    HW2  818   0.669   0.599   1.523
    1SOL     OW  819   2.079   2.940   2.057
    1SOL    HW1  820   2.092   2.846   2.067
    1SOL    HW2  821   2.078   2.974   2.146
    1SOL     OW  822   1.966   1.509   2.186
    1SOL    HW1  823   2.026   1.498   2.112
    1SOL    HW2  824   2.014   1.563   2.248
    1SOL     OW  825   1.052   1.106   3.098
    1SOL    HW1  826   1.098   1.190   3.095
    1SOL    HW2  827   0.990   1.109   3.025
    1SOL     OW  828   3.072   0.720   1.606
    1SOL    HW1  829   3.149   0.740   1.552
    1SOL    HW2  830   3.075   0.784   1.677
    1SOL     OW  831   1.317   0.610   2.200
    1SOL    HW1  832   1.223   0.631   2.195
    1SOL    HW2  833   1.339   0.584   2.111
    1SOL     OW  834   3.260   1.097   2.399
    1SOL    HW1  835   3.241   1.005   2.383
    1SOL    HW2  836   3.231   1.141   2.319
    1SOL     OW  837   0.209   2.807   0.913
    1SOL    HW1  838   0.295   2.837   0.881
    1SOL    HW2  839   0.158   2.794   0.833
    1SOL     OW  840   3.560   0.671   3.309
    1SOL    HW1  841   3.485   0.647   3.364
    1SOL    HW2  842   3.630   0.613   3.338
    1SOL     OW  843   0.465   2.326   0.694
    1SOL    HW1  844   0.504   2.413   0.703
    1SOL    HW2  845   0.407   2.334   0.618
    1SOL     OW  846   3.385   3.792   0.222
    1SOL    HW1  847   3.416   3.878   0.193
    1SOL    HW2  848   3.339   3.810   0.304
    1SOL     OW  849   2.545   3.001   1.831
    1SOL    HW1  850   2.482   3.048   1.776
    1SOL    HW2  851   2.609   3.068   1.856
    1SOL     OW  852   0.487   1.808   2.883
    1SOL    HW1  853   0.423   1.739   2.899
    1SOL    HW2  854   0.569   1.761   2.867
    1SOL     OW  855   1.026   3.390   0.868
    1SOL    HW1  856   0.962   3.458   0.890
    1SOL    HW2  857   1.085   3.387   0.943
    1SOL     OW  858   1.958   0.528   2.452
    1SOL    HW1  859   1.901   0.483   2.514
    1SOL    HW2  860   2.047   0.504   2.479
    1SOL     OW  861   2.750   1.346   1.770
    1SOL    HW1  862   2.659   1.315   1.766
    1SOL    HW2  863   2.752   1.408   1.842
    1SOL     OW  864   1.181   1.949   2.349
    1SOL    HW1  865   1.250   1.885   2.363
    1SOL    HW2  866   1.213   2.005   2.279
    1SOL     OW  867   1.426   1.143   2.639
    1SOL    HW1  868   1.364   1.080   2.674
    1SOL    HW2  869   1.478   1.171   2.714
    1SOL     OW  870   0.561   1.561   2.327
    1SOL    HW1  871   0.657   1.556   2.332
    1SOL    HW2  872   0.544   1.642   2.279
    1SOL     OW  873   2.739   0.858   2.101
    1SOL    HW1  874   2.803   0.898   2.160
    1SOL    HW2  875   2.737   0.765   2.126
    1SOL     OW  876   0.167   1.875   2.676
    1SOL    HW1  877   0.184   1.782   2.662
    1SOL    HW2  878   0.243   1.919   2.639
    1SOL     OW  879   1.866   3.416   0.006
    1SOL    HW1  880   1.791   3.398   0.062
    1SOL    HW2  881   1.845   3.500  -0.036
    1SOL     OW  882   0.254   0.604   2.769
    1SOL    HW1  883   0.189   0.596   2.699
    1SOL    HW2  884   0.218   0.671   2.827
    1SOL     OW  885   0.334   2.039   0.365
    1SOL    HW1  886   0.251   1.992   0.371
    1SOL    HW2  887   0.348   2.051   0.272
    1SOL     OW  888   3.268   2.353   2.833
    1SOL    HW1  889   3.259   2.291   2.760
    1SOL    HW2  890   3.182   2.355   2.874
    1SOL     OW  891   3.205   0.231   1.939
    1SOL    HW1  892   3.154   0.298   1.894
    1SOL    HW2  893   3.166   0.226   2.026
    1SOL     OW  894   1.115   3.530   1.961
    1SOL    HW1  895   1.161   3.587   2.022
    1SOL    HW2  896   1.184   3.492   1.906
    1SOL     OW  897   1.227   4.094   1.810
    1SOL    HW1  898   1.286   4.093   1.735
    1SOL    HW2  899   1.280   4.127   1.883
    1SOL     OW  900   2.225   2.776   1.852
    1SOL    HW1  901   2.293   2.808   1.912
    1SOL    HW2  902   2.229   2.681   1.859
    1SOL     OW  903   2.441   3.839   2.982
    1SOL    HW1  904   2.348   3.860   2.972
    1SOL    HW2  905   2.484   3.923   2.999
    1SOL     OW  906   2.924   1.743   0.141
    1SOL    HW1  907   2.856   1.691   0.184
    1SOL    HW2  908   2.989   1.760   0.210
    1SOL     OW  909   1.128   0.147   0.796
    1SOL    HW1  910   1.155   0.153   0.887
    1SOL    HW2  911   1.047   0.096   0.799
    1SOL     OW  912   3.363   0.565   1.450
    1SOL    HW1  913   3.413   0.621   1.509
    1SOL    HW2  914   3.343   0.621   1.375
    1SOL     OW  915   2.672   0.370   1.860
    1SOL    HW1  916   2.645   0.410   1.778
    1SOL    HW2  917   2.680   0.277   1.841
    1SOL     OW  918   1.856   2.031   0.708
    1SOL    HW1  919   1.799   2.012   0.783
    1SOL    HW2  920   1.879   1.945   0.673
    1SOL     OW  921   3.461   2.009   1.866
    1SOL    HW1  922   3.517   1.946   1.818
    1SOL    HW2  923   3.374   1.969   1.864
    1SOL     OW  924   0.174   2.742   2.936
    1SOL    HW1  925   0.250   2.786   2.897
    1SOL    HW2  926   0.100   2.767   2.880
    1SOL     OW  927   1.947   0.335   1.706
    1SOL    HW1  928   1.909   0.315   1.620
    1SOL    HW2  929   2.015   0.400   1.687
    1SOL     OW  930   0.305   4.128   2.237
    1SOL    HW1  931   0.346   4.213   2.220
    1SOL    HW2  932   0.376   4.075   2.273
    1SOL     OW  933   2.041   3.633   0.462
    1SOL    HW1  934   1.998   3.670   0.385
    1SOL    HW2  935   2.135   3.638   0.442
    1SOL     OW  936   2.711   0.104   0.225
    1SOL    HW1  937   2.732   0.098   0.318
    1SOL    HW2  938   2.618   0.128   0.223
    1SOL     OW  939   0.848   0.190   0.400
    1SOL    HW1  940   0.762   0.160   0.372
    1SOL    HW2  941   0.883   0.236   0.324
    1SOL     OW  942   3.363   3.050   0.563
    1SOL    HW1  943   3.413   3.132   0.568
    1SOL    HW2  944   3.397   2.996   0.634
    1SOL     OW  945   0.316   0.285   3.333
    1SOL    HW1  946   0.389   0.223   3.330
    1SOL    HW2  947   0.309   0.308   3.425
    1SOL     OW  948   0.819   1.058   0.976
    1SOL    HW1  949   0.837   1.010   1.057
    1SOL    HW2  950   0.904   1.064   0.933
    1SOL     OW  951   0.657   3.441   2.816
    1SOL    HW1  952   0.635   3.460   2.907
    1SOL    HW2  953   0.578   3.400   2.780
    1SOL     OW  954   2.224   2.498   1.872
    1SOL    HW1  955   2.320   2.505   1.876
    1SOL    HW2  956   2.196   2.494   1.963
    1SOL     OW  957   0.847   2.328   1.436
    1SOL    HW1  958   0.832   2.299   1.347
    1SOL    HW2  959   0.776   2.289   1.487
    1SOL     OW  960   3.363   0.951   1.093
    1SOL    HW1  961   3.360   0.961   0.998
    1SOL    HW2  962   3.423   1.019   1.123
    1SOL     OW  963   3.313   3.256   1.286
    1SOL    HW1  964   3.250   3.191   1.255
    1SOL    HW2  965   3.343   3.221   1.371
    1SOL     OW  966   0.775   1.605   0.794
    1SOL    HW1  967   0.748   1.557   0.873
    1SOL    HW2  968   0.756   1.696   0.813
    1SOL     OW  969   0.406   2.788   3.314
    1SOL    HW1  970   0.444   2.710   3.355
    1SOL    HW2  971   0.445   2.790   3.226
    1SOL     OW  972   2.993   1.240   2.981
    1SOL    HW1  973   3.062   1.245   2.915
    1SOL    HW2  974   2.992   1.326   3.023
    1SOL     OW  975   1.617   1.686   1.678
    1SOL    HW1  976   1.640   1.625   1.748
    1SOL    HW2  977   1.662   1.767   1.702
    1SOL     OW  978   2.354   0.320   1.682
    1SOL    HW1  979   2.430   0.297   1.629
    1SOL    HW2  980   2.292   0.359   1.620
    1SOL     OW  981   2.497   2.765   0.607
    1SOL    HW1  982   2.466   2.705   0.539
    1SOL    HW2  983   2.578   2.724   0.640
    1SOL     OW  984   2.289   1.836   0.549
    1SOL    HW1  985   2.200   1.813   0.524
    1SOL    HW2  986   2.344   1.778   0.497
    1SOL     OW  987   2.079   1.402   0.652
    1SOL    HW1  988   2.112   1.382   0.564
    1SOL    HW2  989   2.076   1.317   0.696
    1SOL     OW  990   1.011   2.519   0.796
    1SOL    HW1  991   1.039   2.515   0.887
    1SOL    HW2  992   0.982   2.430   0.776
    1SOL     OW  993   1.480   4.142   1.562
    1SOL    HW1  994   1.546   4.073   1.568
    1SOL    HW2  995   1.484   4.186   1.647
    1SOL     OW  996   1.597   0.714   2.242
    1SOL    HW1  997   1.508   0.717   2.208
    1SOL    HW2  998   1.651   0.694   2.165
    1SOL     OW  999   2.850   1.533   2.876
    1SOL    HW1 1000   2.921   1.536   2.812
    1SOL    HW2 1001   2.893   1.516   2.960
    1SOL     OW 1002   1.975   1.239   1.357
    1SOL    HW1 1003   1.886   1.241   1.392
    1SOL    HW2 1004   1.986   1.323   1.312
    1SOL     OW 1005   0.367   1.106   3.123
    1SOL    HW1 1006   0.434   1.080   3.060
    1SOL    HW2 1007   0.364   1.034   3.186
    1SOL     OW 1008   0.742   2.840   3.009
    1SOL    HW1 1009   0.783   2.776   2.952
    1SOL    HW2 1010   0.769   2.925   2.973
    1SOL     OW 1011   0.654   1.803   0.241
    1SOL    HW1 1012   0.678   1.795   0.334
    1SOL    HW2 1013   0.706   1.736   0.197
    1SOL     OW 1014   1.226   2.379   2.082
    1SOL    HW1 1015   1.314   2.402   2.111
    1SOL    HW2 1016   1.168   2.437   2.131
    1SOL     OW 1017   2.104   1.554   2.713
    1SOL    HW1 1018   2.099   1.643   2.750
    1SOL    HW2 1019   2.114   1.497   2.789
    1SOL     OW 1020   1.628   0.190   0.127
    1SOL    HW1 1021   1.576   0.112   0.107
    1SOL    HW2 1022   1.603   0.213   0.217
    1SOL     OW 1023   0.038   4.069   0.397
    1SOL    HW1 1024   0.129   4.042   0.395
    1SOL    HW2 1025   0.008   4.060   0.306
    1SOL     OW 1026   0.671   2.660   3.219
    1SOL    HW1 1027   0.695   2.734   3.163
    1SOL    HW2 1028   0.598   2.618   3.173
    1SOL     OW 1029   0.301   1.092   1.896
    1SOL    HW1 1030   0.246   1.045   1.958
    1SOL    HW2 1031   0.384   1.044   1.896
    1SOL     OW 1032   1.957   0.314   2.618
    1SOL    HW1 1033   1.945   0.315   2.713
    1SOL    HW2 1034   2.040   0.269   2.605
    1SOL     OW 1035   2.749   2.878   0.374
    1SOL    HW1 1036   2.654   2.881   0.386
    1SOL    HW2 1037   2.780   2.818   0.442
    1SOL     OW 1038   3.257   2.875   0.389
    1SOL    HW1 1039   3.278   2.915   0.304
    1SOL    HW2 1040   3.293   2.936   0.453
    1SOL     OW 1041   2.371   0.078   1.843
    1SOL    HW1 1042   2.282   0.060   1.809
    1SOL    HW2 1043   2.392   0.165   1.809
    1SOL     OW 1044   3.371   3.453   3.386
    1SOL    HW1 1045   3.302   3.448   3.453
    1SOL    HW2 1046   3.430   3.381   3.407
    1SOL     OW 1047   1.035   0.267   1.505
    1SOL    HW1 1048   0.962   0.221   1.546
    1SOL    HW2 1049   1.069   0.205   1.441
    1SOL     OW 1050   0.219   0.149   1.178
    1SOL    HW1 1051   0.132   0.138   1.215
    1SOL    HW2 1052   0.271   0.079   1.217
    1SOL     OW 1053   2.243   1.286   0.259
    1SOL    HW1 1054   2.206   1.341   0.191
    1SOL    HW2 1055   2.326   1.328   0.282
    1SOL     OW 1056   2.128   3.091   0.363
    1SOL    HW1 1057   2.100   3.180   0.344
    1SOL    HW2 1058   2.055   3.053   0.412
    1SOL     OW 1059   1.009   2.554   1.069
    1SOL    HW1 1060   1.007   2.642   1.032
    1SOL    HW2 1061   0.932   2.550   1.126
    1SOL     OW 1062   3.313   0.387   0.985
    1SOL    HW1 1063   3.339   0.355   1.071
    1SOL    HW2 1064   3.267   0.470   1.003
    1SOL     OW 1065   3.128   0.137   0.955
    1SOL    HW1 1066   3.099   0.188   0.879
    1SOL    HW2 1067   3.222   0.157   0.961
    1SOL     OW 1068   3.048   3.140   2.728
    1SOL    HW1 1069   2.983   3.129   2.797
    1SOL    HW2 1070   3.021   3.220   2.682
    1SOL     OW 1071   1.849   1.878   0.247
    1SOL    HW1 1072   1.802   1.798   0.224
    1SOL    HW2 1073   1.782   1.937   0.281
    1SOL     OW 1074   0.740   3.845   2.432
    1SOL    HW1 1075   0.748   3.895   2.514
    1SOL    HW2 1076   0.670   3.889   2.384
    1SOL     OW 1077   0.787   2.813   1.275
    1SOL    HW1 1078   0.870   2.822   1.322
    1SOL    HW2 1079   0.720   2.835   1.340
    1SOL     OW 1080   1.076   3.888   0.106
    1SOL    HW1 1081   1.044   3.804   0.073
    1SOL    HW2 1082   1.040   3.953   0.045
    1SOL     OW 1083   2.548   3.817   0.260
    1SOL    HW1 1084   2.610   3.878   0.220
    1SOL    HW2 1085   2.603   3.745   0.292
    1SOL     OW 1086   0.263   2.346   2.410
    1SOL    HW1 1087   0.276   2.345   2.505
    1SOL    HW2 1088   0.351   2.363   2.375
    1SOL     OW 1089   0.461   2.836   0.821
    1SOL    HW1 1090   0.507   2.858   0.740
    1SOL    HW2 1091   0.509   2.761   0.856
    1SOL     OW 1092   3.069   0.628   0.063
    1SOL    HW1 1093   3.044   0.707   0.110
    1SOL    HW2 1094   2.989   0.601   0.017
    1SOL     OW 1095   3.096   1.128   1.430
    1SOL    HW1 1096   3.011   1.085   1.427
    1SOL    HW2 1097   3.089   1.201   1.369
    1SOL     OW 1098   2.977   0.054   1.919
    1SOL    HW1 1099   2.905   0.079   1.861
    1SOL    HW2 1100   3.056   0.068   1.867
    1SOL     OW 1101   1.672   0.755   3.076
    1SOL    HW1 1102   1.731   0.711   3.016
    1SOL    HW2 1103   1.620   0.684   3.115
    1SOL     OW 1104   0.756   3.234   0.268
    1SOL    HW1 1105   0.716   3.169   0.211
    1SOL    HW2 1106   0.702   3.235   0.347
    1SOL     OW 1107   0.873   2.719   2.427
    1SOL    HW1 1108   0.863   2.738   2.334
    1SOL    HW2 1109   0.792   2.748   2.467
    1SOL     OW 1110   0.887   2.892   0.657
    1SOL    HW1 1111   0.874   2.972   0.708
    1SOL    HW2 1112   0.963   2.850   0.697
    1SOL     OW 1113   0.744   0.656   2.340
    1SOL    HW1 1114   0.811   0.724   2.328
    1SOL    HW2 1115   0.722   0.660   2.433
    1SOL     OW 1116   1.037   3.212   0.280
    1SOL    HW1 1117   0.947   3.238   0.262
    1SOL    HW2 1118   1.050   3.132   0.229
    1SOL     OW 1119   2.075   3.910   0.117
    1SOL    HW1 1120   2.057   3.994   0.159
    1SOL    HW2 1121   2.170   3.901   0.121
    1SOL     OW 1122   3.441   0.809   2.218
    1SOL    HW1 1123   3.409   0.852   2.140
    1SOL    HW2 1124   3.520   0.763   2.189
    1SOL     OW 1125   2.220   3.263   2.449
    1SOL    HW1 1126   2.132   3.281   2.418
    1SOL    HW2 1127   2.209   3.204   2.523
    1SOL     OW 1128   2.853   3.694   3.156
    1SOL    HW1 1129   2.898   3.613   3.131
    1SOL    HW2 1130   2.922   3.760   3.161
    1SOL     OW 1131   2.122   2.146   1.158
    1SOL    HW1 1132   2.159   2.136   1.246
    1SOL    HW2 1133   2.078   2.231   1.160
    1SOL     OW 1134   2.921   0.536   3.037
    1SOL    HW1 1135   2.925   0.500   3.125
    1SOL    HW2 1136   3.001   0.503   2.994
    1SOL     OW 1137   0.334   0.665   3.413
    1SOL    HW1 1138   0.340   0.647   3.507
    1SOL    HW2 1139   0.425   0.660   3.382
    1SOL     OW 1140   2.271   1.589   3.073
    1SOL    HW1 1141   2.210   1.564   3.143
    1SOL    HW2 1142   2.235   1.672   3.040
    1SOL     OW 1143   0.000   2.286   2.619
    1SOL    HW1 1144   0.095   2.278   2.621
    1SOL    HW2 1145  -0.018   2.373   2.653
    1SOL     OW 1146   3.491   2.820   0.782
    1SOL    HW1 1147   3.548   2.842   0.709
    1SOL    HW2 1148   3.479   2.725   0.776
    1SOL     OW 1149   0.040   1.691   0.044
    1SOL    HW1 1150   0.135   1.705   0.039
    1SOL    HW2 1151   0.028   1.642   0.125
    1SOL     OW 1152   1.649   3.453   1.210
    1SOL    HW1 1153   1.735   3.431   1.247
    1SOL    HW2 1154   1.606   3.504   1.279
    1SOL     OW 1155   3.578   0.263   3.026
    1SOL    HW1 1156   3.572   0.177   2.984
    1SOL    HW2 1157   3.610   0.245   3.114
    1SOL     OW 1158   2.565   2.980   0.170
    1SOL    HW1 1159   2.625   3.053   0.154
    1SOL    HW2 1160   2.523   3.000   0.253
    1SOL     OW 1161   0.206   4.148   0.678
    1SOL    HW1 1162   0.187   4.207   0.605
    1SOL    HW2 1163   0.129   4.156   0.735
    1SOL     OW 1164   2.763   3.992   0.190
    1SOL    HW1 1165   2.754   4.087   0.194
    1SOL    HW2 1166   2.841   3.973   0.242
    1SOL     OW 1167   3.072   4.173   1.581
    1SOL    HW1 1168   3.132   4.193   1.653
    1SOL    HW2 1169   2.995   4.226   1.598
    1SOL     OW 1170  -0.012   2.434   2.097
    1SOL    HW1 1171  -0.081   2.472   2.043
    1SOL    HW2 1172  -0.038   2.454   2.187
    1SOL     OW 1173   2.166   1.755   2.149
    1SOL    HW1 1174   2.227   1.826   2.129
    1SOL    HW2 1175   2.218   1.693   2.200
    1SOL     OW 1176   1.672   3.676   0.084
    1SOL    HW1 1177   1.670   3.629   0.001
    1SOL    HW2 1178   1.584   3.664   0.121
    1SOL     OW 1179   2.188   0.209   2.469
    1SOL    HW1 1180   2.215   0.300   2.456
    1SOL    HW2 1181   2.102   0.204   2.428
    1SOL     OW 1182   1.401   1.508   0.155
    1SOL    HW1 1183   1.474   1.491   0.095
    1SOL    HW2 1184   1.435   1.484   0.241
    1SOL     OW 1185   2.775   3.693   0.947
    1SOL    HW1 1186   2.799   3.726   0.861
    1SOL    HW2 1187   2.798   3.763   1.008
    1SOL     OW 1188   0.134   1.617   0.682
    1SOL    HW1 1189   0.201   1.667   0.635
    1SOL    HW2 1190   0.051   1.658   0.658
    1SOL     OW 1191   1.397   4.181   2.014
    1SOL    HW1 1192   1.455   4.242   2.058
    1SOL    HW2 1193   1.397   4.103   2.070
    1SOL     OW 1194   1.482   1.109   3.332
    1SOL    HW1 1195   1.439   1.023   3.340
    1SOL    HW2 1196   1.568   1.089   3.294
    1SOL     OW 1197   0.299   1.025   1.328
    1SOL    HW1 1198   0.336   0.955   1.381
    1SOL    HW2 1199   0.364   1.041   1.260
    1SOL     OW 1200   2.001   0.946   1.330
    1SOL    HW1 1201   2.094   0.927   1.343
    1SOL    HW2 1202   1.995   1.042   1.339
    1SOL     OW 1203   3.613   3.990   3.203
    1SOL    HW1 1204   3.569   4.031   3.277
    1SOL    HW2 1205   3.588   3.897   3.208
    1SOL     OW 1206   3.479   2.220   2.337
    1SOL    HW1 1207   3.525   2.186   2.260
    1SOL    HW2 1208   3.535   2.196   2.411
    1SOL     OW 1209   1.947   2.662   1.587
    1SOL    HW1 1210   1.953   2.664   1.683
    1SOL    HW2 1211   1.856   2.684   1.568
    1SOL     OW 1212   1.652   2.841   3.356
    1SOL    HW1 1213   1.620   2.774   3.296
    1SOL    HW2 1214   1.629   2.924   3.314
    1SOL     OW 1215   1.250   0.820   1.544
    1SOL    HW1 1216   1.238   0.909   1.512
    1SOL    HW2 1217   1.174   0.772   1.511
    1SOL     OW 1218   2.315   3.612   0.403
    1SOL    HW1 1219   2.325   3.608   0.308
    1SOL    HW2 1220   2.405   3.610   0.437
    1SOL     OW 1221   0.455   1.520   3.225
    1SOL    HW1 1222   0.507   1.523   3.145
    1SOL    HW2 1223   0.378   1.469   3.201
    1SOL     OW 1224   1.261   0.523   2.684
    1SOL    HW1 1225   1.307   0.556   2.606
    1SOL    HW2 1226   1.231   0.436   2.659
    1SOL     OW 1227   1.631   1.441   3.035
    1SOL    HW1 1228   1.612   1.453   3.128
    1SOL    HW2 1229   1.604   1.523   2.994
    1SOL     OW 1230   0.338   1.361   1.834
    1SOL    HW1 1231   0.268   1.389   1.775
    1SOL    HW2 1232   0.314   1.272   1.859
    1SOL     OW 1233   1.696   1.433   2.149
    1SOL    HW1 1234   1.664   1.380   2.223
    1SOL    HW2 1235   1.788   1.449   2.170
    1SOL     OW 1236   1.541   0.855   1.609
    1SOL    HW1 1237   1.489   0.857   1.689
    1SOL    HW2 1238   1.476   0.844   1.539
    1SOL     OW 1239   0.976   3.775   1.393
    1SOL    HW1 1240   0.978   3.695   1.445
    1SOL    HW2 1241   0.985   3.746   1.303
    1SOL     OW 1242   0.952   0.472   2.878
    1SOL    HW1 1243   1.031   0.524   2.892
    1SOL    HW2 1244   0.971   0.387   2.919
    1SOL     OW 1245   1.715   3.767   3.012
    1SOL    HW1 1246   1.669   3.841   2.972
    1SOL    HW2 1247   1.711   3.784   3.106
    1SOL     OW 1248   1.060   1.776   2.733
    1SOL    HW1 1249   0.989   1.732   2.687
    1SOL    HW2 1250   1.139   1.728   2.710
    1SOL     OW 1251   0.300   4.009   0.431
    1SOL    HW1 1252   0.354   4.083   0.459
    1SOL    HW2 1253   0.314   3.942   0.498
    1SOL     OW 1254   2.233   2.927   2.798
    1SOL    HW1 1255   2.203   2.958   2.883
    1SOL    HW2 1256   2.307   2.984   2.777
    1SOL     OW 1257   2.547   3.886   2.104
    1SOL    HW1 1258   2.462   3.894   2.061
    1SOL    HW2 1259   2.595   3.965   2.079
    1SOL     OW 1260   0.218   0.305   2.280
    1SOL    HW1 1261   0.291   0.362   2.303
    1SOL    HW2 1262   0.241   0.219   2.316
    1SOL     OW 1263   0.541   2.347   0.144
    1SOL    HW1 1264   0.563   2.416   0.207
    1SOL    HW2 1265   0.511   2.274   0.198
    1SOL     OW 1266   0.402   1.679   0.858
    1SOL    HW1 1267   0.361   1.596   0.833
    1SOL    HW2 1268   0.416   1.725   0.775
    1SOL     OW 1269   3.304   3.013   0.154
    1SOL    HW1 1270   3.236   3.037   0.091
    1SOL    HW2 1271   3.350   3.095   0.171
    1SOL     OW 1272   1.621   2.798   1.871
    1SOL    HW1 1273   1.538   2.774   1.830
    1SOL    HW2 1274   1.688   2.768   1.810
    1SOL     OW 1275   3.133   3.420   0.236
    1SOL    HW1 1276   3.164   3.466   0.314
    1SOL    HW2 1277   3.207   3.366   0.210
    1SOL     OW 1278   0.782   0.816   0.338
    1SOL    HW1 1279   0.870   0.779   0.331
    1SOL    HW2 1280   0.744   0.803   0.251
    1SOL     OW 1281   0.617   1.428   0.946
    1SOL    HW1 1282   0.604   1.348   0.998
    1SOL    HW2 1283   0.529   1.458   0.926
    1SOL     OW 1284   2.988   2.789   2.949
    1SOL    HW1 1285   3.030   2.732   3.013
    1SOL    HW2 1286   3.049   2.793   2.876
    1SOL     OW 1287   2.299   0.766   3.250
    1SOL    HW1 1288   2.279   0.751   3.343
    1SOL    HW2 1289   2.243   0.839   3.226
    1SOL     OW 1290   2.624   1.284   3.335
    1SOL    HW1 1291   2.621   1.277   3.239
    1SOL    HW2 1292   2.713   1.258   3.358
    1SOL     OW 1293   0.080   2.051   0.702
    1SOL    HW1 1294   0.026   2.042   0.623
    1SOL    HW2 1295   0.018   2.039   0.774
    1SOL     OW 1296   0.249   2.945   1.494
    1SOL    HW1 1297   0.219   3.032   1.520
    1SOL    HW2 1298   0.293   2.958   1.410
    1SOL     OW 1299   2.756   2.295   1.711
    1SOL    HW1 1300   2.669   2.319   1.679
    1SOL    HW2 1301   2.815   2.315   1.638
    1SOL     OW 1302   1.007   1.659   3.202
    1SOL    HW1 1303   0.979   1.584   3.149
    1SOL    HW2 1304   1.046   1.719   3.139
    1SOL     OW 1305   1.132   3.745   2.407
    1SOL    HW1 1306   1.061   3.752   2.343
    1SOL    HW2 1307   1.172   3.660   2.389
    1SOL     OW 1308   1.325   0.717   0.970
    1SOL    HW1 1309   1.332   0.661   1.047
    1SOL    HW2 1310   1.375   0.672   0.902
    1SOL     OW 1311   2.728   1.287   0.625
    1SOL    HW1 1312   2.701   1.239   0.547
    1SOL    HW2 1313   2.765   1.368   0.590
    1SOL     OW 1314   3.490   1.725   0.682
    1SOL    HW1 1315   3.398   1.700   0.681
    1SOL    HW2 1316   3.518   1.711   0.773
    1SOL     OW 1317   3.339   3.121   0.982
    1SOL    HW1 1318   3.274   3.097   1.047
    1SOL    HW2 1319   3.288   3.152   0.907
    1SOL     OW 1320   2.381   0.255   0.969
    1SOL    HW1 1321   2.317   0.299   0.912
    1SOL    HW2 1322   2.338   0.173   0.993
    1SOL     OW 1323   3.072   0.866   2.063
    1SOL    HW1 1324   3.027   0.870   2.147
    1SOL    HW2 1325   3.162   0.892   2.083
    1SOL     OW 1326   0.010   2.974   1.890
    1SOL    HW1 1327  -0.035   2.920   1.826
    1SOL    HW2 1328  -0.022   2.943   1.975
    1SOL     OW 1329   0.279   1.339   0.541
    1SOL    HW1 1330   0.250   1.351   0.450
    1SOL    HW2 1331   0.277   1.244   0.553
    1SOL     OW 1332   0.756   3.539   0.618
    1SOL    HW1 1333   0.843   3.565   0.585
    1SOL    HW2 1334   0.696   3.603   0.579
    1SOL     OW 1335   0.233   2.331   0.929
    1SOL    HW1 1336   0.172   2.353   0.858
    1SOL    HW2 1337   0.316   2.370   0.902
    1SOL     OW 1338   0.579   3.516   0.974
    1SOL    HW1 1339   0.522   3.591   0.956
    1SOL    HW2 1340   0.529   3.462   1.035
    1SOL     OW 1341   3.351   1.180   3.141
    1SOL    HW1 1342   3.330   1.125   3.217
    1SOL    HW2 1343   3.304   1.140   3.068
    1SOL     OW 1344   3.584   2.114   0.205
    1SOL    HW1 1345   3.628   2.198   0.197
    1SOL    HW2 1346   3.653   2.052   0.228
    1SOL     OW 1347   3.224   2.519   1.423
    1SOL    HW1 1348   3.186   2.542   1.508
    1SOL    HW2 1349   3.196   2.589   1.364
    1SOL     OW 1350   2.450   2.965   0.432
    1SOL    HW1 1351   2.470   2.904   0.502
    1SOL    HW2 1352   2.403   3.037   0.475
    1SOL     OW 1353   0.059   2.724   1.312
    1SOL    HW1 1354  -0.016   2.679   1.274
    1SOL    HW2 1355   0.135   2.684   1.269
    1SOL     OW 1356   2.501   2.395   2.496
    1SOL    HW1 1357   2.409   2.378   2.477
    1SOL    HW2 1358   2.539   2.308   2.509
    1SOL     OW 1359   1.905   1.120   0.127
    1SOL    HW1 1360   1.819   1.155   0.101
    1SOL    HW2 1361   1.965   1.150   0.059
    1SOL     OW 1362   1.157   0.176   1.766
    1SOL    HW1 1363   1.127   0.093   1.802
    1SOL    HW2 1364   1.121   0.178   1.677
    1SOL     OW 1365   0.341   1.546   2.906
    1SOL    HW1 1366   0.351   1.498   2.988
    1SOL    HW2 1367   0.250   1.533   2.881
    1SOL     OW 1368   0.175   1.851   0.876
    1SOL    HW1 1369   0.229   1.772   0.866
    1SOL    HW2 1370   0.179   1.893   0.790
    1SOL     OW 1371   2.807   2.157   2.234
    1SOL    HW1 1372   2.839   2.088   2.175
    1SOL    HW2 1373   2.885   2.207   2.257
    1SOL     OW 1374   3.294   0.014   2.439
    1SOL    HW1 1375   3.316  -0.079   2.439
    1SOL    HW2 1376   3.331   0.047   2.521
    1SOL     OW 1377   2.154   3.364   0.436
    1SOL    HW1 1378   2.090   3.363   0.365
    1SOL    HW2 1379   2.181   3.456   0.441
    1SOL     OW 1380   0.874   0.128   1.697
    1SOL    HW1 1381   0.781   0.126   1.673
    1SOL    HW2 1382   0.889   0.044   1.741
    1SOL     OW 1383   0.543   3.135   0.106
    1SOL    HW1 1384   0.612   3.149   0.042
    1SOL    HW2 1385   0.474   3.090   0.057
    1SOL     OW 1386   0.808   0.143   2.214
    1SOL    HW1 1387   0.835   0.066   2.264
    1SOL    HW2 1388   0.875   0.153   2.147
    1SOL     OW 1389   2.629   4.034   0.476
    1SOL    HW1 1390   2.568   3.963   0.455
    1SOL    HW2 1391   2.573   4.107   0.503
    1SOL     OW 1392   0.088   2.936   3.393
    1SOL    HW1 1393   0.121   2.896   3.474
    1SOL    HW2 1394  -0.006   2.948   3.410
    1SOL     OW 1395   0.742   1.312   2.597
    1SOL    HW1 1396   0.674   1.313   2.530
    1SOL    HW2 1397   0.728   1.392   2.647
    1SOL     OW 1398   1.499   1.786   0.408
    1SOL    HW1 1399   1.501   1.807   0.314
    1SOL    HW2 1400   1.541   1.700   0.414
    1SOL     OW 1401   3.255   4.207   1.774
    1SOL    HW1 1402   3.294   4.294   1.768
    1SOL    HW2 1403   3.297   4.168   1.851
    1SOL     OW 1404   3.567   3.914   1.786
    1SOL    HW1 1405   3.561   3.979   1.716
    1SOL    HW2 1406   3.635   3.948   1.843
    1SOL     OW 1407   2.777   2.225   3.273
    1SOL    HW1 1408   2.865   2.209   3.306
    1SOL    HW2 1409   2.789   2.284   3.198
    1SOL     OW 1410   2.417   3.939   1.442
    1SOL    HW1 1411   2.443   4.014   1.389
    1SOL    HW2 1412   2.466   3.949   1.523
    1SOL     OW 1413   0.171   3.847   2.996
    1SOL    HW1 1414   0.087   3.871   3.036
    1SOL    HW2 1415   0.149   3.823   2.906
    1SOL     OW 1416   2.737   2.768   0.066
    1SOL    HW1 1417   2.707   2.819   0.141
    1SOL    HW2 1418   2.827   2.744   0.088
    1SOL     OW 1419   0.155   2.193   3.288
    1SOL    HW1 1420   0.247   2.197   3.263
    1SOL    HW2 1421   0.107   2.200   3.205
    1SOL     OW 1422   3.580   1.359   0.934
    1SOL    HW1 1423   3.492   1.376   0.901
    1SOL    HW2 1424   3.621   1.445   0.936
    1SOL     OW 1425   0.151   0.935   2.047
    1SOL    HW1 1426   0.078   0.995   2.063
    1SOL    HW2 1427   0.119   0.875   1.980
    1SOL     OW 1428   1.706   1.727   2.184
    1SOL    HW1 1429   1.691   1.649   2.131
    1SOL    HW2 1430   1.795   1.756   2.160
    1SOL     OW 1431   0.620   3.609   1.633
    1SOL    HW1 1432   0.672   3.654   1.699
    1SOL    HW2 1433   0.672   3.532   1.610
    1SOL     OW 1434   1.770   3.368   2.372
    1SOL    HW1 1435   1.716   3.421   2.431
    1SOL    HW2 1436   1.856   3.367   2.413
    1SOL     OW 1437   1.649   1.972   2.023
    1SOL    HW1 1438   1.672   1.918   2.098
    1SOL    HW2 1439   1.659   2.062   2.053
    1SOL     OW 1440   0.380   3.402   1.152
    1SOL    HW1 1441   0.313   3.334   1.164
    1SOL    HW2 1442   0.418   3.413   1.239
    1SOL     OW 1443   1.094   1.818   1.956
    1SOL    HW1 1444   1.045   1.899   1.940
    1SOL    HW2 1445   1.186   1.845   1.956
    1SOL     OW 1446   2.418   0.018   2.287
    1SOL    HW1 1447   2.339   0.044   2.239
    1SOL    HW2 1448   2.482  -0.003   2.218
    1SOL     OW 1449   1.704   0.829   2.511
    1SOL    HW1 1450   1.638   0.810   2.578
    1SOL    HW2 1451   1.663   0.803   2.428
    1SOL     OW 1452   0.800   0.874   1.950
    1SOL    HW1 1453   0.841   0.919   1.876
    1SOL    HW2 1454   0.823   0.782   1.938
    1SOL     OW 1455   0.595   0.728   3.378
    1SOL    HW1 1456   0.561   0.761   3.462
    1SOL    HW2 1457   0.609   0.807   3.326
    1SOL     OW 1458   1.331   4.127   0.661
    1SOL    HW1 1459   1.376   4.137   0.577
    1SOL    HW2 1460   1.289   4.211   0.676
    1SOL     OW 1461   0.549   3.109   1.323
    1SOL    HW1 1462   0.495   3.165   1.267
    1SOL    HW2 1463   0.517   3.021   1.306
    1SOL     OW 1464   2.992   3.673   2.847
    1SOL    HW1 1465   2.900   3.698   2.846
    1SOL    HW2 1466   3.027   3.707   2.929
    1SOL     OW 1467   1.588   2.553   0.698
    1SOL    HW1 1468   1.506   2.504   0.685
    1SOL    HW2 1469   1.645   2.492   0.745
    1SOL     OW 1470   1.460   2.402   2.641
    1SOL    HW1 1471   1.437   2.494   2.630
    1SOL    HW2 1472   1.398   2.369   2.706
    1SOL     OW 1473   3.407   1.641   2.590
    1SOL    HW1 1474   3.356   1.704   2.539
    1SOL    HW2 1475   3.487   1.630   2.539
    1SOL     OW 1476   0.449   0.322   0.884
    1SOL    HW1 1477   0.458   0.353   0.794
    1SOL    HW2 1478   0.365   0.276   0.884
    1SOL     OW 1479   3.541   1.366   2.355
    1SOL    HW1 1480   3.627   1.344   2.321
    1SOL    HW2 1481   3.520   1.295   2.416
    1SOL     OW 1482   2.322   0.041   2.663
    1SOL    HW1 1483   2.375  -0.011   2.602
    1SOL    HW2 1484   2.276   0.104   2.607
    1SOL     OW 1485   0.260   0.193   3.069
    1SOL    HW1 1486   0.255   0.109   3.113
    1SOL    HW2 1487   0.226   0.256   3.134
    1SOL     OW 1488   1.024   0.986   0.195
    1SOL    HW1 1489   1.035   0.895   0.222
    1SOL    HW2 1490   0.940   1.011   0.231
    1SOL     OW 1491   1.323   0.564   0.451
    1SOL    HW1 1492   1.244   0.532   0.406
    1SOL    HW2 1493   1.395   0.541   0.392
    1SOL     OW 1494   2.665   2.010   0.311
    1SOL    HW1 1495   2.599   2.070   0.277
    1SOL    HW2 1496   2.649   1.928   0.264
    1SOL     OW 1497   2.987   0.115   1.164
    1SOL    HW1 1498   3.033   0.139   1.083
    1SOL    HW2 1499   3.045   0.051   1.206
    1SOL     OW 1500   0.813   1.259   3.278
    1SOL    HW1 1501   0.757   1.288   3.350
    1SOL    HW2 1502   0.867   1.190   3.316
    1SOL     OW 1503   0.598   0.199   3.380
    1SOL    HW1 1504   0.553   0.198   3.464
    1SOL    HW2 1505   0.653   0.278   3.383
    1SOL     OW 1506   3.276   2.607   0.445
    1SOL    HW1 1507   3.262   2.695   0.410
    1SOL    HW2 1508   3.202   2.556   0.414
    1SOL     OW 1509   2.390   2.059   2.972
    1SOL    HW1 1510   2.474   2.015   2.959
    1SOL    HW2 1511   2.379   2.063   3.067
    1SOL     OW 1512   2.374   0.939   2.881
    1SOL    HW1 1513   2.441   0.952   2.948
    1SOL    HW2 1514   2.417   0.961   2.799
    1SOL     OW 1515   2.868   2.270   1.407
    1SOL    HW1 1516   2.823   2.185   1.406
    1SOL    HW2 1517   2.835   2.316   1.330
    1SOL     OW 1518   3.283   0.735   2.918
    1SOL    HW1 1519   3.255   0.728   3.009
    1SOL    HW2 1520   3.337   0.657   2.903
    1SOL     OW 1521   0.336   3.526   0.557
    1SOL    HW1 1522   0.359   3.454   0.499
    1SOL    HW2 1523   0.279   3.487   0.623
    1SOL     OW 1524   1.809   3.644   0.580
    1SOL    HW1 1525   1.777   3.733   0.563
    1SOL    HW2 1526   1.893   3.639   0.536
    1SOL     OW 1527   2.851   1.378   1.505
    1SOL    HW1 1528   2.832   1.289   1.475
    1SOL    HW2 1529   2.800   1.389   1.585
    1SOL     OW 1530   2.323   2.320   2.890
    1SOL    HW1 1531   2.233   2.330   2.858
    1SOL    HW2 1532   2.334   2.225   2.898
    1SOL     OW 1533   0.568   2.162   0.389
    1SOL    HW1 1534   0.491   2.107   0.379
    1SOL    HW2 1535   0.572   2.181   0.483
    1SOL     OW 1536   2.449   2.179   0.227
    1SOL    HW1 1537   2.477   2.267   0.252
    1SOL    HW2 1538   2.390   2.153   0.297
    1SOL     OW 1539   0.074   1.486   2.857
    1SOL    HW1 1540   0.045   1.565   2.903
    1SOL    HW2 1541   0.022   1.416   2.896
    1SOL     OW 1542   0.911   0.265   3.342
    1SOL    HW1 1543   0.918   0.190   3.400
    1SOL    HW2 1544   0.990   0.317   3.361
    1SOL     OW 1545   0.594   0.813   1.679
    1SOL    HW1 1546   0.546   0.859   1.748
    1SOL    HW2 1547   0.684   0.845   1.687
    1SOL     OW 1548   3.460   2.990   2.570
    1SOL    HW1 1549   3.469   3.074   2.525
    1SOL    HW2 1550   3.492   2.926   2.507
    1SOL     OW 1551   2.006   1.276   0.386
    1SOL    HW1 1552   2.091   1.246   0.352
    1SOL    HW2 1553   1.948   1.274   0.309
    1SOL     OW 1554   0.189   3.298   2.786
    1SOL    HW1 1555   0.129   3.366   2.814
    1SOL    HW2 1556   0.197   3.239   2.861
    1SOL     OW 1557   0.058   3.814   2.750
    1SOL    HW1 1558   0.046   3.867   2.671
    1SOL    HW2 1559   0.066   3.724   2.718
    1SOL     OW 1560   0.811   2.550   0.585
    1SOL    HW1 1561   0.850   2.582   0.666
    1SOL    HW2 1562   0.721   2.528   0.609
    1SOL     OW 1563   1.911   3.336   1.654
    1SOL    HW1 1564   1.900   3.429   1.633
    1SOL    HW2 1565   1.828   3.311   1.696
    1SOL     OW 1566   0.336   2.614   2.227
    1SOL    HW1 1567   0.410   2.626   2.168
    1SOL    HW2 1568   0.260   2.638   2.175
    1SOL     OW 1569   1.312   3.039   1.522
    1SOL    HW1 1570   1.251   3.024   1.450
    1SOL    HW2 1571   1.273   3.111   1.572
    1SOL     OW 1572   0.821   0.360   2.420
    1SOL    HW1 1573   0.893   0.321   2.371
    1SOL    HW2 1574   0.862   0.430   2.471
    1SOL     OW 1575   2.601   3.329   2.732
    1SOL    HW1 1576   2.541   3.365   2.797
    1SOL    HW2 1577   2.687   3.334   2.773
    1SOL     OW 1578   0.362   1.855   1.913
    1SOL    HW1 1579   0.389   1.945   1.892
    1SOL    HW2 1580   0.309   1.863   1.992
    1SOL     OW 1581   0.309   3.621   2.749
    1SOL    HW1 1582   0.348   3.541   2.787
    1SOL    HW2 1583   0.233   3.589   2.701
    1SOL     OW 1584   1.224   0.154   3.165
    1SOL    HW1 1585   1.254   0.065   3.185
    1SOL    HW2 1586   1.229   0.161   3.070
    1SOL     OW 1587   0.388   1.822   1.107
    1SOL    HW1 1588   0.355   1.764   1.176
    1SOL    HW2 1589   0.383   1.769   1.027
    1SOL     OW 1590   1.497   2.236   3.341
    1SOL    HW1 1591   1.477   2.249   3.433
    1SOL    HW2 1592   1.593   2.241   3.336
    1SOL     OW 1593   2.021   2.622   1.170
    1SOL    HW1 1594   1.954   2.682   1.137
    1SOL    HW2 1595   2.015   2.545   1.112
    1SOL     OW 1596   2.587   3.831   2.384
    1SOL    HW1 1597   2.505   3.817   2.429
    1SOL    HW2 1598   2.562   3.846   2.292
    1SOL     OW 1599   1.872   3.986   1.970
    1SOL    HW1 1600   1.896   4.064   1.920
    1SOL    HW2 1601   1.929   3.988   2.047
    1SOL     OW 1602   1.546   3.195   1.221
    1SOL    HW1 1603   1.611   3.140   1.176
    1SOL    HW2 1604   1.594   3.276   1.241
    1SOL     OW 1605   3.503   1.689   1.194
    1SOL    HW1 1606   3.421   1.692   1.242
    1SOL    HW2 1607   3.559   1.754   1.238
    1SOL     OW 1608   1.003   1.599   2.122
    1SOL    HW1 1609   1.063   1.652   2.070
    1SOL    HW2 1610   0.916   1.626   2.092
    1SOL     OW 1611   2.400   2.538   1.391
    1SOL    HW1 1612   2.306   2.518   1.391
    1SOL    HW2 1613   2.414   2.589   1.312
    1SOL     OW 1614   0.699   0.997   0.124
    1SOL    HW1 1615   0.734   0.963   0.042
    1SOL    HW2 1616   0.746   1.078   0.138
    1SOL     OW 1617   0.485   3.743   2.204
    1SOL    HW1 1618   0.447   3.796   2.274
    1SOL    HW2 1619   0.487   3.654   2.240
    1SOL     OW 1620   1.427   2.784   0.795
    1SOL    HW1 1621   1.410   2.766   0.888
    1SOL    HW2 1622   1.513   2.826   0.794
    1SOL     OW 1623   2.060   1.739   1.143
    1SOL    HW1 1624   2.035   1.696   1.225
    1SOL    HW2 1625   2.082   1.667   1.084
    1SOL     OW 1626   1.585   2.749   1.059
    1SOL    HW1 1627   1.507   2.762   1.114
    1SOL    HW2 1628   1.589   2.655   1.045
    1SOL     OW 1629   2.544   0.717   2.780
    1SOL    HW1 1630   2.509   0.785   2.838
    1SOL    HW2 1631   2.609   0.671   2.833
    1SOL     OW 1632   1.573   3.098   3.247
    1SOL    HW1 1633   1.491   3.117   3.202
    1SOL    HW2 1634   1.639   3.145   3.196
    1SOL     OW 1635   2.494   0.524   0.624
    1SOL    HW1 1636   2.550   0.448   0.641
    1SOL    HW2 1637   2.545   0.599   0.655
    1SOL     OW 1638   0.475   2.537   0.974
    1SOL    HW1 1639   0.486   2.498   1.061
    1SOL    HW2 1640   0.564   2.539   0.938
    1SOL     OW 1641   3.247   2.042   2.108
    1SOL    HW1 1642   3.288   2.050   2.022
    1SOL    HW2 1643   3.153   2.037   2.089
    1SOL     OW 1644   3.374   2.602   3.173
    1SOL    HW1 1645   3.365   2.668   3.104
    1SOL    HW2 1646   3.412   2.526   3.128
    1SOL     OW 1647   2.077   1.534   0.925
    1SOL    HW1 1648   2.001   1.479   0.904
    1SOL    HW2 1649   2.084   1.594   0.851
    1SOL     OW 1650   1.187   1.621   1.101
    1SOL    HW1 1651   1.150   1.632   1.014
    1SOL    HW2 1652   1.243   1.544   1.094
    1SOL     OW 1653   2.480   3.715   1.299
    1SOL    HW1 1654   2.570   3.708   1.329
    1SOL    HW2 1655   2.440   3.780   1.357
    1SOL     OW 1656   2.891   3.159   1.092
    1SOL    HW1 1657   2.892   3.252   1.069
    1SOL    HW2 1658   2.849   3.116   1.017
    1SOL     OW 1659   1.413   1.257   2.410
    1SOL    HW1 1660   1.403   1.201   2.487
    1SOL    HW2 1661   1.382   1.343   2.439
    1SOL     OW 1662   0.205   0.128   0.105
    1SOL    HW1 1663   0.241   0.104   0.020
    1SOL    HW2 1664   0.243   0.065   0.166
    1SOL     OW 1665   2.874   0.353   1.613
    1SOL    HW1 1666   2.879   0.333   1.520
    1SOL    HW2 1667   2.827   0.279   1.651
    1SOL     OW 1668   0.536   2.603   0.570
    1SOL    HW1 1669   0.534   2.697   0.583
    1SOL    HW2 1670   0.529   2.591   0.476
    1SOL     OW 1671   1.734   2.147   2.229
    1SOL    HW1 1672   1.723   2.215   2.296
    1SOL    HW2 1673   1.828   2.130   2.228
    1SOL     OW 1674   1.333   0.820   1.801
    1SOL    HW1 1675   1.304   0.819   1.710
    1SOL    HW2 1676   1.255   0.845   1.850
    1SOL     OW 1677   1.382   1.935   1.960
    1SOL    HW1 1678   1.464   1.937   2.008
    1SOL    HW2 1679   1.401   1.981   1.878
    1SOL     OW 1680   0.356   0.214   0.427
    1SOL    HW1 1681   0.405   0.137   0.456
    1SOL    HW2 1682   0.265   0.185   0.423
    1SOL     OW 1683   2.010   3.856   3.180
    1SOL    HW1 1684   2.047   3.772   3.151
    1SOL    HW2 1685   1.994   3.904   3.098
    1SOL     OW 1686   1.717   3.247   0.568
    1SOL    HW1 1687   1.682   3.324   0.522
    1SOL    HW2 1688   1.811   3.260   0.570
    1SOL     OW 1689   1.425   0.025   0.455
    1SOL    HW1 1690   1.415   0.119   0.440
    1SOL    HW2 1691   1.446  -0.011   0.369
    1SOL     OW 1692   0.283   3.379   2.408
    1SOL    HW1 1693   0.202   3.422   2.380
    1SOL    HW2 1694   0.286   3.299   2.356
    1SOL     OW 1695   0.108   1.154   0.897
    1SOL    HW1 1696   0.047   1.082   0.916
    1SOL    HW2 1697   0.052   1.232   0.896
    1SOL     OW 1698   0.364   0.751   1.490
    1SOL    HW1 1699   0.418   0.727   1.414
    1SOL    HW2 1700   0.426   0.752   1.563
    1SOL     OW 1701   3.652   2.173   2.102
    1SOL    HW1 1702   3.687   2.258   2.076
    1SOL    HW2 1703   3.628   2.130   2.020
    1SOL     OW 1704   2.519   2.095   3.217
    1SOL    HW1 1705   2.605   2.134   3.234
    1SOL    HW2 1706   2.514   2.021   3.277
    1SOL     OW 1707   3.257   1.963   0.502
    1SOL    HW1 1708   3.351   1.961   0.516
    1SOL    HW2 1709   3.224   1.885   0.545
    1SOL     OW 1710   2.709   3.731   2.904
    1SOL    HW1 1711   2.741   3.759   2.990
    1SOL    HW2 1712   2.615   3.750   2.906
    1SOL     OW 1713   0.555   3.702   2.934
    1SOL    HW1 1714   0.645   3.704   2.900
    1SOL    HW2 1715   0.527   3.793   2.929
    1SOL     OW 1716   0.194   3.280   0.836
    1SOL    HW1 1717   0.279   3.257   0.874
    1SOL    HW2 1718   0.136   3.208   0.862
    1SOL     OW 1719   2.258   3.103   1.882
    1SOL    HW1 1720   2.236   3.092   1.789
    1SOL    HW2 1721   2.212   3.031   1.926
    1SOL     OW 1722   2.751   1.806   1.670
    1SOL    HW1 1723   2.742   1.727   1.724
    1SOL    HW2 1724   2.661   1.835   1.655
    1SOL     OW 1725   1.706   0.330   1.822
    1SOL    HW1 1726   1.660   0.384   1.758
    1SOL    HW2 1727   1.797   0.329   1.793
    1SOL     OW 1728   3.534   2.082   0.480
    1SOL    HW1 1729   3.533   2.072   0.385
    1SOL    HW2 1730   3.559   2.174   0.494
    1SOL     OW 1731   0.192   0.840   2.934
    1SOL    HW1 1732   0.276   0.806   2.968
    1SOL    HW2 1733   0.157   0.892   3.006
    1SOL     OW 1734   0.089   3.164   1.414
    1SOL    HW1 1735   0.053   3.078   1.390
    1SOL    HW2 1736   0.120   3.202   1.332
    1SOL     OW 1737   1.614   3.465   0.456
    1SOL    HW1 1738   1.534   3.494   0.499
    1SOL    HW2 1739   1.677   3.535   0.474
    1SOL     OW 1740   0.183   2.279   0.142
    1SOL    HW1 1741   0.246   2.208   0.134
    1SOL    HW2 1742   0.139   2.282   0.057
    1SOL     OW 1743   3.286   3.896   2.154
    1SOL    HW1 1744   3.330   3.849   2.083
    1SOL    HW2 1745   3.195   3.867   2.149
    1SOL     OW 1746   0.705   2.687   0.881
    1SOL    HW1 1747   0.786   2.646   0.914
    1SOL    HW2 1748   0.721   2.781   0.891
    1SOL     OW 1749   3.478   3.313   1.837
    1SOL    HW1 1750   3.409   3.247   1.827
    1SOL    HW2 1751   3.537   3.297   1.762
    1SOL     OW 1752   0.024   3.002   0.625
    1SOL    HW1 1753   0.112   2.996   0.588
    1SOL    HW2 1754   0.033   3.066   0.696
    1SOL     OW 1755   2.593   0.526   1.652
    1SOL    HW1 1756   2.683   0.557   1.640
    1SOL    HW2 1757   2.579   0.463   1.582
    1SOL     OW 1758   2.834   1.640   0.877
    1SOL    HW1 1759   2.805   1.622   0.787
    1SOL    HW2 1760   2.778   1.711   0.906
    1SOL     OW 1761   3.164   2.748   2.338
    1SOL    HW1 1762   3.196   2.677   2.394
    1SOL    HW2 1763   3.166   2.826   2.394
    1SOL     OW 1764   1.944   2.557   0.010
    1SOL    HW1 1765   2.029   2.585   0.043
    1SOL    HW2 1766   1.894   2.638   0.001
    1SOL     OW 1767   1.647   1.170   0.064
    1SOL    HW1 1768   1.598   1.167   0.145
    1SOL    HW2 1769   1.653   1.079   0.035
    1SOL     OW 1770   2.972   2.572   0.237
    1SOL    HW1 1771   2.998   2.550   0.327
    1SOL    HW2 1772   3.002   2.663   0.226
    1SOL     OW 1773   1.840   3.129   2.052
    1SOL    HW1 1774   1.898   3.200   2.023
    1SOL    HW2 1775   1.890   3.049   2.032
    1SOL     OW 1776   3.010   0.499   1.425
    1SOL    HW1 1777   2.970   0.558   1.360
    1SOL    HW2 1778   3.048   0.557   1.490
    1SOL     OW 1779   0.520   2.460   1.254
    1SOL    HW1 1780   0.484   2.372   1.247
    1SOL    HW2 1781   0.458   2.506   1.311
    1SOL     OW 1782   1.494   2.077   0.279
    1SOL    HW1 1783   1.539   2.108   0.358
    1SOL    HW2 1784   1.402   2.069   0.306
    1SOL     OW 1785   0.993   3.617   1.618
    1SOL    HW1 1786   1.078   3.654   1.644
    1SOL    HW2 1787   0.961   3.573   1.696
    1SOL     OW 1788   2.195   1.216   0.999
    1SOL    HW1 1789   2.199   1.202   1.093
    1SOL    HW2 1790   2.103   1.237   0.982
    1SOL     OW 1791   1.002   2.242   0.739
    1SOL    HW1 1792   0.951   2.162   0.729
    1SOL    HW2 1793   1.032   2.240   0.830
    1SOL     OW 1794   2.271   2.779   2.525
    1SOL    HW1 1795   2.359   2.805   2.554
    1SOL    HW2 1796   2.284   2.746   2.436
    1SOL     OW 1797   1.159   1.400   0.726
    1SOL    HW1 1798   1.077   1.364   0.692
    1SOL    HW2 1799   1.226   1.337   0.697
    1SOL     OW 1800   2.305   3.942   0.353
    1SOL    HW1 1801   2.389   3.907   0.323
    1SOL    HW2 1802   2.261   3.866   0.392
    1SOL     OW 1803   2.994   2.840   0.184
    1SOL    HW1 1804   3.083   2.859   0.157
    1SOL    HW2 1805   2.971   2.910   0.244
    1SOL     OW 1806   0.664   0.271   1.999
    1SOL    HW1 1807   0.701   0.337   2.058
    1SOL    HW2 1808   0.669   0.190   2.049
    1SOL     OW 1809   0.439   4.164   3.409
    1SOL    HW1 1810   0.402   4.174   3.321
    1SOL    HW2 1811   0.533   4.151   3.394
    1SOL     OW 1812   1.526   3.673   0.858
    1SOL    HW1 1813   1.489   3.692   0.945
    1SOL    HW2 1814   1.574   3.592   0.870
    1SOL     OW 1815   2.812   3.153   3.300
    1SOL    HW1 1816   2.802   3.115   3.388
    1SOL    HW2 1817   2.841   3.080   3.246
    1SOL     OW 1818   1.684   0.896   1.100
    1SOL    HW1 1819   1.699   0.991   1.096
    1SOL    HW2 1820   1.671   0.878   1.193
    1SOL     OW 1821   3.058   0.992   3.276
    1SOL    HW1 1822   3.032   0.922   3.216
    1SOL    HW2 1823   3.153   0.985   3.281
    1SOL     OW 1824   2.457   1.579   0.954
    1SOL    HW1 1825   2.526   1.606   0.894
    1SOL    HW2 1826   2.402   1.520   0.903
    1SOL     OW 1827   3.430   2.271   1.852
    1SOL    HW1 1828   3.395   2.278   1.940
    1SOL    HW2 1829   3.439   2.176   1.836
    1SOL     OW 1830   1.117   1.377   2.718
    1SOL    HW1 1831   1.126   1.446   2.652
    1SOL    HW2 1832   1.206   1.367   2.753
    1SOL     OW 1833   2.108   2.526   1.418
    1SOL    HW1 1834   2.070   2.550   1.333
    1SOL    HW2 1835   2.062   2.583   1.481
    1SOL     OW 1836   1.380   2.174   0.555
    1SOL    HW1 1837   1.346   2.111   0.492
    1SOL    HW2 1838   1.475   2.166   0.549
    1SOL     OW 1839   2.682   3.967   1.821
    1SOL    HW1 1840   2.700   3.992   1.911
    1SOL    HW2 1841   2.724   4.035   1.768
    1SOL     OW 1842   1.051   3.121   2.062
    1SOL    HW1 1843   1.120   3.109   2.128
    1SOL    HW2 1844   1.003   3.198   2.092
    1SOL     OW 1845   1.188   4.089   2.952
    1SOL    HW1 1846   1.188   3.995   2.934
    1SOL    HW2 1847   1.152   4.096   3.040
    1SOL     OW 1848   0.910   0.615   2.596
    1SOL    HW1 1849   0.859   0.671   2.654
    1SOL    HW2 1850   0.941   0.544   2.652
    1SOL     OW 1851   1.618   0.245   0.909
    1SOL    HW1 1852   1.576   0.161   0.891
    1SOL    HW2 1853   1.545   0.308   0.908
    1SOL     OW 1854   3.578   3.085   0.363
    1SOL    HW1 1855   3.568   3.020   0.432
    1SOL    HW2 1856   3.629   3.155   0.403
    1SOL     OW 1857   1.332   3.459   3.239
    1SOL    HW1 1858   1.281   3.380   3.255
    1SOL    HW2 1859   1.378   3.441   3.157
    1SOL     OW 1860   2.790   2.724   0.606
    1SOL    HW1 1861   2.875   2.767   0.614
    1SOL    HW2 1862   2.808   2.631   0.622
    1SOL     OW 1863   1.934   3.189   1.213
    1SOL    HW1 1864   2.019   3.159   1.244
    1SOL    HW2 1865   1.905   3.122   1.151
    1SOL     OW 1866   1.170   0.177   0.367
    1SOL    HW1 1867   1.100   0.113   0.368
    1SOL    HW2 1868   1.127   0.260   0.389
    1SOL     OW 1869   0.839   2.605   2.889
    1SOL    HW1 1870   0.752   2.565   2.884
    1SOL    HW2 1871   0.883   2.558   2.960
    1SOL     OW 1872   2.925   2.510   1.525
    1SOL    HW1 1873   2.967   2.442   1.472
    1SOL    HW2 1874   2.833   2.509   1.496
    1SOL     OW 1875   1.879   2.667   3.161
    1SOL    HW1 1876   1.916   2.578   3.168
    1SOL    HW2 1877   1.949   2.724   3.195
    1SOL     OW 1878   1.190   0.882   0.579
    1SOL    HW1 1879   1.236   0.829   0.515
    1SOL    HW2 1880   1.102   0.845   0.583
    1SOL     OW 1881   0.640   3.848   0.496
    1SOL    HW1 1882   0.678   3.875   0.413
    1SOL    HW2 1883   0.585   3.773   0.474
    1SOL     OW 1884   2.108   1.860   3.256
    1SOL    HW1 1885   2.086   1.933   3.199
    1SOL    HW2 1886   2.191   1.886   3.297
    1SOL     OW 1887   0.401   2.556   1.474
    1SOL    HW1 1888   0.349   2.630   1.506
    1SOL    HW2 1889   0.483   2.561   1.524
    1SOL     OW 1890   2.637   1.270   3.040
    1SOL    HW1 1891   2.640   1.174   3.038
    1SOL    HW2 1892   2.704   1.297   2.977
    1SOL     OW 1893   0.180   3.825   3.366
    1SOL    HW1 1894   0.168   3.796   3.275
    1SOL    HW2 1895   0.136   3.758   3.418
    1SOL     OW 1896   1.861   3.459   3.409
    1SOL    HW1 1897   1.809   3.512   3.348
    1SOL    HW2 1898   1.798   3.401   3.451
    1SOL     OW 1899   0.829   0.696   3.003
    1SOL    HW1 1900   0.805   0.609   2.972
    1SOL    HW2 1901   0.909   0.683   3.054
    1SOL     OW 1902   1.304   3.051   0.847
    1SOL    HW1 1903   1.366   3.115   0.813
    1SOL    HW2 1904   1.301   2.982   0.780
    1SOL     OW 1905   2.704   2.778   3.154
    1SOL    HW1 1906   2.728   2.849   3.094
    1SOL    HW2 1907   2.704   2.699   3.100
    1SOL     OW 1908   1.969   0.534   0.220
    1SOL    HW1 1909   1.959   0.615   0.170
    1SOL    HW2 1910   2.018   0.476   0.161
    1SOL     OW 1911   0.861   3.077   1.600
    1SOL    HW1 1912   0.790   3.110   1.655
    1SOL    HW2 1913   0.938   3.127   1.628
    1SOL     OW 1914   2.455   3.190   2.061
    1SOL    HW1 1915   2.395   3.182   1.987
    1SOL    HW2 1916   2.542   3.183   2.022
    1SOL     OW 1917   0.688   3.277   0.878
    1SOL    HW1 1918   0.684   3.226   0.960
    1SOL    HW2 1919   0.643   3.359   0.898
    1SOL     OW 1920   3.536   1.658   0.929
    1SOL    HW1 1921   3.631   1.643   0.922
    1SOL    HW2 1922   3.520   1.662   1.023
    1SOL     OW 1923   2.070   3.786   1.635
    1SOL    HW1 1924   2.126   3.847   1.681
    1SOL    HW2 1925   2.118   3.704   1.635
    1SOL     OW 1926   1.983   1.916   2.506
    1SOL    HW1 1927   2.057   1.855   2.499
    1SOL    HW2 1928   1.906   1.860   2.500
    1SOL     OW 1929   2.979   0.651   1.932
    1SOL    HW1 1930   3.034   0.711   1.983
    1SOL    HW2 1931   3.037   0.578   1.910
    1SOL     OW 1932   0.760   0.122   2.579
    1SOL    HW1 1933   0.757   0.211   2.543
    1SOL    HW2 1934   0.801   0.070   2.511
    1SOL     OW 1935   2.191   2.962   1.236
    1SOL    HW1 1936   2.273   2.919   1.259
    1SOL    HW2 1937   2.135   2.950   1.313
    1SOL     OW 1938   0.498   0.077   2.875
    1SOL    HW1 1939   0.593   0.087   2.881
    1SOL    HW2 1940   0.475   0.021   2.950
    1SOL     OW 1941   2.862   3.854   2.482
    1SOL    HW1 1942   2.787   3.846   2.423
    1SOL    HW2 1943   2.856   3.942   2.518
    1SOL     OW 1944   2.363   1.618  -0.015
    1SOL    HW1 1945   2.358   1.523  -0.028
    1SOL    HW2 1946   2.409   1.650  -0.092
    1SOL     OW 1947   1.806   3.750   2.237
    1SOL    HW1 1948   1.880   3.699   2.272
    1SOL    HW2 1949   1.846   3.826   2.195
    1SOL     OW 1950   2.520   1.545   3.165
    1SOL    HW1 1951   2.577   1.509   3.097
    1SOL    HW2 1952   2.434   1.554   3.123
    1SOL     OW 1953   2.479   4.132   1.205
    1SOL    HW1 1954   2.487   4.108   1.113
    1SOL    HW2 1955   2.409   4.198   1.207
    1SOL     OW 1956   2.441   0.126   0.245
    1SOL    HW1 1957   2.408   0.113   0.334
    1SOL    HW2 1958   2.408   0.212   0.219
    1SOL     OW 1959   2.603   2.931   0.891
    1SOL    HW1 1960   2.545   2.944   0.816
    1SOL    HW2 1961   2.675   2.992   0.876
    1SOL     OW 1962   2.220   3.626   0.898
    1SOL    HW1 1963   2.307   3.666   0.908
    1SOL    HW2 1964   2.163   3.678   0.954
    1SOL     OW 1965   3.524   2.789   0.111
    1SOL    HW1 1966   3.445   2.838   0.133
    1SOL    HW2 1967   3.497   2.697   0.116
    1SOL     OW 1968   2.493   0.974   0.071
    1SOL    HW1 1969   2.527   1.061   0.094
    1SOL    HW2 1970   2.421   0.992   0.012
    1SOL     OW 1971   2.740   0.293   2.736
    1SOL    HW1 1972   2.771   0.247   2.814
    1SOL    HW2 1973   2.648   0.270   2.729
    1SOL     OW 1974   2.490   3.442   0.222
    1SOL    HW1 1975   2.401   3.411   0.205
    1SOL    HW2 1976   2.536   3.432   0.138
    1SOL     OW 1977   0.930   3.433   3.380
    1SOL    HW1 1978   0.910   3.502   3.444
    1SOL    HW2 1979   0.865   3.446   3.311
    1SOL     OW 1980   2.457   2.720   0.916
    1SOL    HW1 1981   2.490   2.805   0.945
    1SOL    HW2 1982   2.425   2.736   0.827
    1SOL     OW 1983   0.438   0.774   3.032
    1SOL    HW1 1984   0.448   0.687   2.992
    1SOL    HW2 1985   0.453   0.759   3.125
    1SOL     OW 1986   1.187   1.483   2.281
    1SOL    HW1 1987   1.261   1.472   2.221
    1SOL    HW2 1988   1.120   1.526   2.228
    1SOL     OW 1989   2.172   0.453   0.843
    1SOL    HW1 1990   2.206   0.519   0.782
    1SOL    HW2 1991   2.178   0.495   0.929
    1SOL     OW 1992   1.976   3.220   0.632
    1SOL    HW1 1993   2.051   3.257   0.586
    1SOL    HW2 1994   1.978   3.262   0.719
    1SOL     OW 1995   2.643   1.921   2.543
    1SOL    HW1 1996   2.648   2.006   2.500
    1SOL    HW2 1997   2.725   1.914   2.592
    1SOL     OW 1998   2.490   2.496   1.870
    1SOL    HW1 1999   2.538   2.566   1.825
    1SOL    HW2 2000   2.550   2.467   1.939
    1SOL     OW 2001   1.480   2.312   3.068
    1SOL    HW1 2002   1.492   2.221   3.039
    1SOL    HW2 2003   1.495   2.309   3.163
    1SOL     OW 2004   1.928   1.210   2.324
    1SOL    HW1 2005   1.835   1.201   2.344
    1SOL    HW2 2006   1.951   1.297   2.355
    1SOL     OW 2007   1.272   0.262   2.913
    1SOL    HW1 2008   1.255   0.273   2.819
    1SOL    HW2 2009   1.341   0.325   2.933
    1SOL     OW 2010   2.059   0.796   2.481
    1SOL    HW1 2011   2.013   0.719   2.513
    1SOL    HW2 2012   2.114   0.763   2.410
    1SOL     OW 2013   1.463   2.532   2.181
    1SOL    HW1 2014   1.400   2.518   2.251
    1SOL    HW2 2015   1.522   2.599   2.215
    1SOL     OW 2016   0.353   3.828   1.286
    1SOL    HW1 2017   0.436   3.798   1.250
    1SOL    HW2 2018   0.358   3.807   1.380
    1SOL     OW 2019   2.347   3.037   0.784
    1SOL    HW1 2020   2.348   3.087   0.865
    1SOL    HW2 2021   2.333   3.101   0.715
    1SOL     OW 2022   2.045   2.902   0.997
    1SOL    HW1 2023   2.078   2.900   0.907
    1SOL    HW2 2024   2.122   2.883   1.051
    1SOL     OW 2025   2.043   2.250   0.770
    1SOL    HW1 2026   1.967   2.192   0.764
    1SOL    HW2 2027   2.092   2.233   0.689
    1SOL     OW 2028   2.448   1.435   0.329
    1SOL    HW1 2029   2.440   1.416   0.423
    1SOL    HW2 2030   2.428   1.528   0.322
    1SOL     OW 2031   2.153   0.744   1.672
    1SOL    HW1 2032   2.112   0.822   1.709
    1SOL    HW2 2033   2.205   0.708   1.744
    1SOL     OW 2034   1.165   1.346   3.021
    1SOL    HW1 2035   1.198   1.402   3.091
    1SOL    HW2 2036   1.209   1.379   2.942
    1SOL     OW 2037   0.824   1.545   2.361
    1SOL    HW1 2038   0.853   1.545   2.270
    1SOL    HW2 2039   0.904   1.536   2.413
    1SOL     OW 2040   3.199   2.860   1.774
    1SOL    HW1 2041   3.198   2.769   1.805
    1SOL    HW2 2042   3.142   2.859   1.697
    1SOL     OW 2043   2.546   3.536   0.644
    1SOL    HW1 2044   2.513   3.473   0.707
    1SOL    HW2 2045   2.611   3.487   0.593
    1SOL     OW 2046   0.260   1.073   0.530
    1SOL    HW1 2047   0.313   1.105   0.457
    1SOL    HW2 2048   0.312   1.003   0.569
    1SOL     OW 2049   2.264   3.917   1.743
    1SOL    HW1 2050   2.235   3.941   1.831
    1SOL    HW2 2051   2.339   3.858   1.758
    1SOL     OW 2052   0.330   3.274   0.413
    1SOL    HW1 2053   0.236   3.287   0.416
    1SOL    HW2 2054   0.344   3.190   0.458
    1SOL     OW 2055   3.302   0.499   0.052
    1SOL    HW1 2056   3.349   0.563   0.106
    1SOL    HW2 2057   3.212   0.533   0.049
    1SOL     OW 2058   3.218   1.955   1.409
    1SOL    HW1 2059   3.309   1.981   1.420
    1SOL    HW2 2060   3.174   2.035   1.380
    1SOL     OW 2061   3.016   3.755   1.303
    1SOL    HW1 2062   3.080   3.818   1.269
    1SOL    HW2 2063   3.067   3.675   1.317
    1SOL     OW 2064   1.766   1.672   0.099
    1SOL    HW1 2065   1.734   1.583   0.106
    1SOL    HW2 2066   1.690   1.727   0.115
    1SOL     OW 2067   1.911   2.579   0.440
    1SOL    HW1 2068   1.901   2.594   0.534
    1SOL    HW2 2069   1.874   2.492   0.426
    1SOL     OW 2070   0.167   3.226   1.146
    1SOL    HW1 2071   0.174   3.132   1.130
    1SOL    HW2 2072   0.073   3.245   1.137
    1SOL     OW 2073   0.534   1.842   3.402
    1SOL    HW1 2074   0.500   1.756   3.430
    1SOL    HW2 2075   0.604   1.821   3.341
    1SOL     OW 2076   1.764   2.786   1.326
    1SOL    HW1 2077   1.777   2.867   1.277
    1SOL    HW2 2078   1.758   2.813   1.417
    1SOL     OW 2079   2.186   3.862   2.752
    1SOL    HW1 2080   2.237   3.867   2.671
    1SOL    HW2 2081   2.175   3.768   2.767
    1SOL     OW 2082   0.926   2.531   1.570
    1SOL    HW1 2083   0.889   2.453   1.529
    1SOL    HW2 2084   0.911   2.518   1.664
    1SOL     OW 2085   2.945   0.182   0.071
    1SOL    HW1 2086   2.882   0.138   0.128
    1SOL    HW2 2087   2.939   0.274   0.097
    1SOL     OW 2088   2.256   2.984   3.076
    1SOL    HW1 2089   2.302   3.038   3.140
    1SOL    HW2 2090   2.164   2.996   3.096
    1SOL     OW 2091   2.631   2.936   2.220
    1SOL    HW1 2092   2.660   2.894   2.301
    1SOL    HW2 2093   2.571   3.005   2.249
    1SOL     OW 2094   1.401   1.450   0.437
    1SOL    HW1 2095   1.341   1.524   0.432
    1SOL    HW2 2096   1.349   1.379   0.476
    1SOL     OW 2097   2.811   1.023   1.119
    1SOL    HW1 2098   2.899   1.036   1.084
    1SOL    HW2 2099   2.798   0.928   1.119
    1SOL     OW 2100   3.187   0.204   2.247
    1SOL    HW1 2101   3.253   0.147   2.289
    1SOL    HW2 2102   3.140   0.243   2.321
    1SOL     OW 2103   2.872   3.387   0.176
    1SOL    HW1 2104   2.966   3.390   0.193
    1SOL    HW2 2105   2.851   3.475   0.143
    1SOL     OW 2106   2.618   4.140   2.504
    1SOL    HW1 2107   2.544   4.147   2.443
    1SOL    HW2 2108   2.695   4.135   2.448
    1SOL     OW 2109   2.030   0.623   3.281
    1SOL    HW1 2110   2.042   0.712   3.249
    1SOL    HW2 2111   1.935   0.611   3.283
    1SOL     OW 2112   0.891   1.984   1.255
    1SOL    HW1 2113   0.884   1.891   1.237
    1SOL    HW2 2114   0.986   2.001   1.256
    1SOL     OW 2115   2.563   2.242   1.131
    1SOL    HW1 2116   2.481   2.229   1.083
    1SOL    HW2 2117   2.537   2.245   1.223
    1SOL     OW 2118   1.349   2.202   1.326
    1SOL    HW1 2119   1.430   2.201   1.377
    1SOL    HW2 2120   1.296   2.271   1.366
    1SOL     OW 2121   2.952   3.944   1.894
    1SOL    HW1 2122   2.969   3.932   1.801
    1SOL    HW2 2123   2.978   4.035   1.911
    1SOL     OW 2124   2.148   0.258   1.886
    1SOL    HW1 2125   2.210   0.272   1.814
    1SOL    HW2 2126   2.064   0.290   1.852
    1SOL     OW 2127   1.486   3.158   2.158
    1SOL    HW1 2128   1.450   3.070   2.160
    1SOL    HW2 2129   1.523   3.171   2.246
    1SOL     OW 2130   2.311   1.378   0.800
    1SOL    HW1 2131   2.266   1.334   0.872
    1SOL    HW2 2132   2.241   1.410   0.744
    1SOL     OW 2133   0.945   1.964   0.550
    1SOL    HW1 2134   0.998   2.016   0.490
    1SOL    HW2 2135   0.855   1.993   0.533
    1SOL     OW 2136   1.361   0.465   0.132
    1SOL    HW1 2137   1.366   0.371   0.145
    1SOL    HW2 2138   1.286   0.478   0.073
    1SOL     OW 2139   2.619   2.715   1.763
    1SOL    HW1 2140   2.711   2.727   1.742
    1SOL    HW2 2141   2.585   2.804   1.774
    1SOL     OW 2142   2.631   3.094   2.567
    1SOL    HW1 2143   2.650   3.177   2.611
    1SOL    HW2 2144   2.585   3.120   2.487
    1SOL     OW 2145   3.095   1.512   1.741
    1SOL    HW1 2146   3.079   1.426   1.700
    1SOL    HW2 2147   3.190   1.514   1.754
    1SOL     OW 2148   0.300   2.268   2.110
    1SOL    HW1 2149   0.349   2.186   2.101
    1SOL    HW2 2150   0.257   2.261   2.195
    1SOL     OW 2151   0.802   1.921   2.147
    1SOL    HW1 2152   0.801   1.852   2.081
    1SOL    HW2 2153   0.820   2.002   2.098
    1SOL     OW 2154   0.129   4.153   2.773
    1SOL    HW1 2155   0.070   4.139   2.847
    1SOL    HW2 2156   0.215   4.130   2.807
    1SOL     OW 2157   1.175   3.405   2.703
    1SOL    HW1 2158   1.084   3.375   2.692
    1SOL    HW2 2159   1.226   3.324   2.708
    1SOL     OW 2160   3.398   0.197   1.664
    1SOL    HW1 2161   3.413   0.284   1.702
    1SOL    HW2 2162   3.347   0.215   1.584
    1SOL     OW 2163   1.463   0.350   2.244
    1SOL    HW1 2164   1.426   0.438   2.259
    1SOL    HW2 2165   1.444   0.302   2.324
    1SOL     OW 2166   0.760   3.932   1.519
    1SOL    HW1 2167   0.846   3.892   1.503
    1SOL    HW2 2168   0.755   3.941   1.614
    1SOL     OW 2169   2.617   3.649   2.633
    1SOL    HW1 2170   2.663   3.691   2.560
    1SOL    HW2 2171   2.677   3.657   2.707
    1SOL     OW 2172   3.045   2.883   1.502
    1SOL    HW1 2173   2.993   2.963   1.489
    1SOL    HW2 2174   3.127   2.901   1.456
    1SOL     OW 2175   1.984   2.393   3.136
    1SOL    HW1 2176   2.002   2.341   3.214
    1SOL    HW2 2177   1.942   2.332   3.075
    1SOL     OW 2178   3.497   0.691   1.641
    1SOL    HW1 2179   3.590   0.679   1.661
    1SOL    HW2 2180   3.474   0.773   1.685
    1SOL     OW 2181   1.608   3.652   1.403
    1SOL    HW1 2182   1.535   3.679   1.460
    1SOL    HW2 2183   1.649   3.734   1.377
    1SOL     OW 2184   0.672   2.912   2.107
    1SOL    HW1 2185   0.579   2.910   2.084
    1SOL    HW2 2186   0.700   3.000   2.085
    1SOL     OW 2187   3.527   0.940   2.925
    1SOL    HW1 2188   3.443   0.896   2.910
    1SOL    HW2 2189   3.533   0.951   3.020
    1SOL     OW 2190   1.568   3.171   1.487
    1SOL    HW1 2191   1.485   3.125   1.496
    1SOL    HW2 2192   1.577   3.187   1.393
    1SOL     OW 2193   2.821   2.359   0.167
    1SOL    HW1 2194   2.860   2.440   0.200
    1SOL    HW2 2195   2.728   2.379   0.160
    1SOL     OW 2196   2.240   0.388   2.181
    1SOL    HW1 2197   2.304   0.351   2.241
    1SOL    HW2 2198   2.288   0.402   2.100
    1SOL     OW 2199   0.956   3.362   2.149
    1SOL    HW1 2200   1.007   3.422   2.094
    1SOL    HW2 2201   0.876   3.410   2.169
    1SOL     OW 2202   0.076   3.547  -0.002
    1SOL    HW1 2203   0.096   3.584  -0.088
    1SOL    HW2 2204   0.129   3.468   0.003
    1SOL     OW 2205   0.518   3.866   3.238
    1SOL    HW1 2206   0.544   3.783   3.277
    1SOL    HW2 2207   0.457   3.904   3.301
    1SOL     OW 2208   2.657   2.104   1.870
    1SOL    HW1 2209   2.745   2.074   1.889
    1SOL    HW2 2210   2.669   2.178   1.810
    1SOL     OW 2211   2.217   3.061   1.629
    1SOL    HW1 2212   2.131   3.039   1.592
    1SOL    HW2 2213   2.274   2.991   1.597
    1SOL     OW 2214   2.812   0.602   2.139
    1SOL    HW1 2215   2.845   0.655   2.067
    1SOL    HW2 2216   2.891   0.574   2.186
    1SOL     OW 2217   2.065   2.347   2.761
    1SOL    HW1 2218   2.057   2.273   2.701
    1SOL    HW2 2219   1.995   2.407   2.735
    1SOL     OW 2220   1.649   2.660   0.247
    1SOL    HW1 2221   1.607   2.655   0.333
    1SOL    HW2 2222   1.734   2.700   0.264
    1SOL     OW 2223   1.355   1.487   3.147
    1SOL    HW1 2224   1.340   1.527   3.062
    1SOL    HW2 2225   1.436   1.526   3.179
    1SOL     OW 2226   1.379   2.540   1.565
    1SOL    HW1 2227   1.337   2.453   1.568
    1SOL    HW2 2228   1.325   2.590   1.504
    1SOL     OW 2229   3.591   1.342   1.909
    1SOL    HW1 2230   3.501   1.322   1.885
    1SOL    HW2 2231   3.634   1.365   1.827
    1SOL     OW 2232   2.046   2.913   1.461
    1SOL    HW1 2233   1.954   2.932   1.480
    1SOL    HW2 2234   2.073   2.852   1.529
    1SOL     OW 2235   0.639   3.959   1.786
    1SOL    HW1 2236   0.660   4.051   1.802
    1SOL    HW2 2237   0.545   3.952   1.805
    1SOL     OW 2238   2.757   0.904   2.726
    1SOL    HW1 2239   2.662   0.891   2.732
    1SOL    HW2 2240   2.784   0.846   2.655
    1SOL     OW 2241   2.523   2.814   2.583
    1SOL    HW1 2242   2.561   2.900   2.568
    1SOL    HW2 2243   2.595   2.761   2.615
    1SOL     OW 2244   1.687   0.584   1.071
    1SOL    HW1 2245   1.745   0.508   1.073
    1SOL    HW2 2246   1.608   0.555   1.116
    1SOL     OW 2247   1.659   0.896   0.019
    1SOL    HW1 2248   1.622   0.819  -0.022
    1SOL    HW2 2249   1.747   0.869   0.046
    1SOL     OW 2250   3.066   1.051   1.050
    1SOL    HW1 2251   3.139   1.001   1.084
    1SOL    HW2 2252   3.101   1.095   0.972
    1SOL     OW 2253   1.647   0.743   0.790
    1SOL    HW1 2254   1.553   0.724   0.795
    1SOL    HW2 2255   1.672   0.713   0.703
    1SOL     OW 2256   0.721   0.283   1.440
    1SOL    HW1 2257   0.747   0.278   1.348
    1SOL    HW2 2258   0.739   0.374   1.464
    1SOL     OW 2259   1.527   3.424   1.596
    1SOL    HW1 2260   1.558   3.336   1.574
    1SOL    HW2 2261   1.604   3.480   1.584
    1SOL     OW 2262   0.646   2.855   2.515
    1SOL    HW1 2263   0.590   2.811   2.579
    1SOL    HW2 2264   0.597   2.934   2.491
    1SOL     OW 2265   1.784   0.029   2.873
    1SOL    HW1 2266   1.741   0.043   2.957
    1SOL    HW2 2267   1.841   0.104   2.862
    1SOL     OW 2268   1.420   3.644   0.204
    1SOL    HW1 2269   1.347   3.587   0.180
    1SOL    HW2 2270   1.439   3.621   0.295
    1SOL     OW 2271   1.284   2.115   2.169
    1SOL    HW1 2272   1.318   2.079   2.088
    1SOL    HW2 2273   1.263   2.206   2.148
    1SOL     OW 2274   0.453   0.371   0.603
    1SOL    HW1 2275   0.546   0.379   0.582
    1SOL    HW2 2276   0.418   0.311   0.538
    1SOL     OW 2277   1.835   2.335   0.392
    1SOL    HW1 2278   1.765   2.286   0.435
    1SOL    HW2 2279   1.820   2.322   0.299
    1SOL     OW 2280   0.522   4.062   1.499
    1SOL    HW1 2281   0.611   4.027   1.493
    1SOL    HW2 2282   0.480   4.011   1.568
    1SOL     OW 2283   0.640   2.387   2.325
    1SOL    HW1 2284   0.626   2.321   2.257
    1SOL    HW2 2285   0.639   2.470   2.279
    1SOL     OW 2286   0.244   3.539   3.026
    1SOL    HW1 2287   0.173   3.501   2.974
    1SOL    HW2 2288   0.238   3.633   3.009
    1SOL     OW 2289   1.841   2.739   0.928
    1SOL    HW1 2290   1.903   2.801   0.966
    1SOL    HW2 2291   1.760   2.754   0.977
    1SOL     OW 2292   1.227   0.463   1.720
    1SOL    HW1 2293   1.181   0.383   1.745
    1SOL    HW2 2294   1.289   0.478   1.792
    1SOL     OW 2295   0.963   0.749   0.657
    1SOL    HW1 2296   0.950   0.659   0.688
    1SOL    HW2 2297   0.876   0.789   0.663
    1SOL     OW 2298   1.370   2.928   2.752
    1SOL    HW1 2299   1.343   2.836   2.748
    1SOL    HW2 2300   1.319   2.965   2.823
    1SOL     OW 2301   2.910   0.789   3.163
    1SOL    HW1 2302   2.915   0.846   3.087
    1SOL    HW2 2303   2.912   0.700   3.127
    1SOL     OW 2304   2.597   2.426   0.570
    1SOL    HW1 2305   2.547   2.441   0.489
    1SOL    HW2 2306   2.533   2.388   0.630
    1SOL     OW 2307   1.186   2.742   0.672
    1SOL    HW1 2308   1.276   2.722   0.700
    1SOL    HW2 2309   1.135   2.666   0.701
    1SOL     OW 2310   0.241   0.659   2.425
    1SOL    HW1 2311   0.208   0.737   2.382
    1SOL    HW2 2312   0.166   0.624   2.473
    1SOL     OW 2313   1.595   3.988   2.922
    1SOL    HW1 2314   1.595   4.020   3.012
    1SOL    HW2 2315   1.545   4.053   2.873
    1SOL     OW 2316   0.006   0.214   3.278
    1SOL    HW1 2317  -0.030   0.270   3.346
    1SOL    HW2 2318   0.034   0.135   3.323
    1SOL     OW 2319   0.446   3.725   0.142
    1SOL    HW1 2320   0.441   3.653   0.206
    1SOL    HW2 2321   0.355   3.755   0.134
    1SOL     OW 2322   1.799   3.018   1.569
    1SOL    HW1 2323   1.712   3.058   1.566
    1SOL    HW2 2324   1.846   3.069   1.636
    1SOL     OW 2325   1.426   1.890   3.077
    1SOL    HW1 2326   1.430   1.858   3.168
    1SOL    HW2 2327   1.367   1.965   3.081
    1SOL     OW 2328   2.795   2.416   1.206
    1SOL    HW1 2329   2.739   2.381   1.137
    1SOL    HW2 2330   2.739   2.476   1.255
    1SOL     OW 2331   3.447   2.081   2.608
    1SOL    HW1 2332   3.361   2.123   2.605
    1SOL    HW2 2333   3.508   2.153   2.622
    1SOL     OW 2334   2.940   2.961   1.899
    1SOL    HW1 2335   2.932   2.890   1.836
    1SOL    HW2 2336   2.952   2.918   1.983
    1SOL     OW 2337   0.972   1.632   1.812
    1SOL    HW1 2338   0.986   1.646   1.718
    1SOL    HW2 2339   1.030   1.695   1.855
    1SOL     OW 2340   0.666   2.895   1.526
    1SOL    HW1 2341   0.730   2.964   1.546
    1SOL    HW2 2342   0.591   2.915   1.582
    1SOL     OW 2343   0.036   0.826   2.392
    1SOL    HW1 2344   0.011   0.842   2.483
    1SOL    HW2 2345  -0.041   0.852   2.342
    1SOL     OW 2346   1.660   2.303   2.485
    1SOL    HW1 2347   1.656   2.373   2.420
    1SOL    HW2 2348   1.598   2.330   2.553
    1SOL     OW 2349   3.509   2.927   2.174
    1SOL    HW1 2350   3.494   2.855   2.235
    1SOL    HW2 2351   3.452   2.997   2.204
    1SOL     OW 2352   1.528   2.054   2.430
    1SOL    HW1 2353   1.585   2.125   2.459
    1SOL    HW2 2354   1.534   2.055   2.335
    1SOL     OW 2355   0.759   0.439   3.151
    1SOL    HW1 2356   0.741   0.442   3.245
    1SOL    HW2 2357   0.850   0.468   3.142
    1SOL     OW 2358   0.180   2.410   2.896
    1SOL    HW1 2359   0.204   2.499   2.923
    1SOL    HW2 2360   0.145   2.370   2.976
    1SOL     OW 2361   2.544   1.714   2.394
    1SOL    HW1 2362   2.550   1.773   2.469
    1SOL    HW2 2363   2.622   1.659   2.400
    1SOL     OW 2364   2.169   3.583   0.166
    1SOL    HW1 2365   2.217   3.636   0.102
    1SOL    HW2 2366   2.077   3.597   0.144
    1SOL     OW 2367   0.588   3.307   1.535
    1SOL    HW1 2368   0.589   3.258   1.617
    1SOL    HW2 2369   0.575   3.240   1.467
    1SOL     OW 2370   2.034   0.648   2.736
    1SOL    HW1 2371   2.102   0.666   2.672
    1SOL    HW2 2372   2.053   0.707   2.809
    1SOL     OW 2373   2.466   1.870   2.148
    1SOL    HW1 2374   2.442   1.819   2.226
    1SOL    HW2 2375   2.551   1.834   2.122
    1SOL     OW 2376   1.514   2.985   2.524
    1SOL    HW1 2377   1.454   2.944   2.586
    1SOL    HW2 2378   1.517   2.926   2.450
    1SOL     OW 2379   1.422   3.842   2.441
    1SOL    HW1 2380   1.474   3.788   2.382
    1SOL    HW2 2381   1.332   3.811   2.429
    1SOL     OW 2382   2.211   1.839   1.345
    1SOL    HW1 2383   2.124   1.879   1.338
    1SOL    HW2 2384   2.242   1.833   1.254
    1SOL     OW 2385   0.069   3.809   0.635
    1SOL    HW1 2386   0.049   3.898   0.665
    1SOL    HW2 2387   0.163   3.799   0.650
    1SOL     OW 2388   3.106   3.764   3.194
    1SOL    HW1 2389   3.141   3.819   3.123
    1SOL    HW2 2390   3.169   3.692   3.202
    1SOL     OW 2391   2.229   2.366   2.429
    1SOL    HW1 2392   2.168   2.436   2.454
    1SOL    HW2 2393   2.184   2.286   2.455
    1SOL     OW 2394   1.902   0.226   0.030
    1SOL    HW1 2395   1.941   0.144   0.001
    1SOL    HW2 2396   1.808   0.207   0.038
    1SOL     OW 2397   1.490   2.029   2.748
    1SOL    HW1 2398   1.570   2.078   2.766
    1SOL    HW2 2399   1.505   1.991   2.662
    1SOL     OW 2400   0.266   0.754   0.322
    1SOL    HW1 2401   0.267   0.658   0.331
    1SOL    HW2 2402   0.323   0.784   0.393
    1SOL     OW 2403   0.852   3.908   3.345
    1SOL    HW1 2404   0.830   3.857   3.267
    1SOL    HW2 2405   0.770   3.912   3.395
    1SOL     OW 2406   2.274   3.974   2.010
    1SOL    HW1 2407   2.224   3.924   2.074
    1SOL    HW2 2408   2.275   4.063   2.045
    1SOL     OW 2409   1.789   1.260   0.757
    1SOL    HW1 2410   1.742   1.257   0.674
    1SOL    HW2 2411   1.867   1.206   0.741
    1SOL     OW 2412   3.616   1.818   2.258
    1SOL    HW1 2413   3.697   1.831   2.208
    1SOL    HW2 2414   3.587   1.906   2.282
    1SOL     OW 2415   3.076   1.455   2.165
    1SOL    HW1 2416   3.020   1.453   2.242
    1SOL    HW2 2417   3.164   1.472   2.198
    1SOL     OW 2418   3.425   3.698   1.400
    1SOL    HW1 2419   3.353   3.704   1.336
    1SOL    HW2 2420   3.407   3.769   1.462
    1SOL     OW 2421   1.628   2.983   2.881
    1SOL    HW1 2422   1.631   2.908   2.941
    1SOL    HW2 2423   1.557   2.961   2.821
    1SOL     OW 2424   0.525   1.049   2.947
    1SOL    HW1 2425   0.603   0.997   2.968
    1SOL    HW2 2426   0.458   0.984   2.924
    1SOL     OW 2427   0.355   2.107   0.802
    1SOL    HW1 2428   0.394   2.176   0.748
    1SOL    HW2 2429   0.265   2.099   0.771
    1SOL     OW 2430   3.561   0.865   0.338
    1SOL    HW1 2431   3.532   0.953   0.362
    1SOL    HW2 2432   3.552   0.862   0.243
    1SOL     OW 2433   0.256   2.638   1.159
    1SOL    HW1 2434   0.307   2.564   1.128
    1SOL    HW2 2435   0.251   2.697   1.083
    1SOL     OW 2436   0.342   0.260   1.420
    1SOL    HW1 2437   0.411   0.326   1.413
    1SOL    HW2 2438   0.324   0.234   1.329
    1SOL     OW 2439   2.694   1.713   1.358
    1SOL    HW1 2440   2.676   1.628   1.318
    1SOL    HW2 2441   2.639   1.774   1.310
    1SOL     OW 2442   0.109   3.111   2.319
    1SOL    HW1 2443   0.144   3.109   2.230
    1SOL    HW2 2444   0.088   3.020   2.338
    1SOL     OW 2445   2.822   3.703   1.902
    1SOL    HW1 2446   2.911   3.684   1.873
    1SOL    HW2 2447   2.805   3.792   1.873
    1SOL     OW 2448   1.999   3.432   2.757
    1SOL    HW1 2449   1.910   3.441   2.724
    1SOL    HW2 2450   2.012   3.337   2.764
    1SOL     OW 2451   2.333   3.215   0.560
    1SOL    HW1 2452   2.273   3.240   0.490
    1SOL    HW2 2453   2.323   3.283   0.626
    1SOL     OW 2454   0.790   4.001   1.234
    1SOL    HW1 2455   0.784   3.945   1.157
    1SOL    HW2 2456   0.771   3.943   1.308
    1SOL     OW 2457   0.052   3.523   2.330
    1SOL    HW1 2458   0.077   3.546   2.241
    1SOL    HW2 2459  -0.042   3.540   2.334
    1SOL     OW 2460   1.042   1.936   0.057
    1SOL    HW1 2461   1.094   1.904   0.130
    1SOL    HW2 2462   0.954   1.900   0.072
    1SOL     OW 2463   1.426   0.483   2.999
    1SOL    HW1 2464   1.347   0.533   2.978
    1SOL    HW2 2465   1.460   0.525   3.079
    1SOL     OW 2466   1.565   0.290   0.385
    1SOL    HW1 2467   1.632   0.357   0.394
    1SOL    HW2 2468   1.529   0.279   0.473
    1SOL     OW 2469   0.387   2.778   0.237
    1SOL    HW1 2470   0.408   2.806   0.148
    1SOL    HW2 2471   0.292   2.788   0.244
    1SOL     OW 2472   1.293   3.835   0.517
    1SOL    HW1 2473   1.376   3.883   0.520
    1SOL    HW2 2474   1.230   3.899   0.485
    1SOL     OW 2475   0.253   4.093   3.206
    1SOL    HW1 2476   0.231   4.104   3.298
    1SOL    HW2 2477   0.182   4.040   3.170
    1SOL     OW 2478   0.533   2.967   0.357
    1SOL    HW1 2479   0.497   2.885   0.322
    1SOL    HW2 2480   0.527   3.029   0.284
    1SOL     OW 2481   2.272   0.862   1.437
    1SOL    HW1 2482   2.324   0.916   1.497
    1SOL    HW2 2483   2.225   0.802   1.494
    1SOL     OW 2484   2.224   3.807   2.254
    1SOL    HW1 2485   2.234   3.720   2.216
    1SOL    HW2 2486   2.289   3.811   2.323
    1SOL     OW 2487   2.538   0.333   1.167
    1SOL    HW1 2488   2.603   0.263   1.169
    1SOL    HW2 2489   2.481   0.310   1.094
    1SOL     OW 2490   3.575   2.062   0.959
    1SOL    HW1 2491   3.659   2.089   0.995
    1SOL    HW2 2492   3.566   1.970   0.984
    1SOL     OW 2493   2.828   2.736   0.970
    1SOL    HW1 2494   2.781   2.788   0.905
    1SOL    HW2 2495   2.776   2.657   0.980
    1SOL     OW 2496   0.832   3.566   0.888
    1SOL    HW1 2497   0.782   3.569   0.807
    1SOL    HW2 2498   0.769   3.540   0.955
    1SOL     OW 2499   3.570   1.774   1.677
    1SOL    HW1 2500   3.647   1.725   1.707
    1SOL    HW2 2501   3.499   1.709   1.679
    1SOL     OW 2502   2.289   3.481   1.375
    1SOL    HW1 2503   2.288   3.388   1.351
    1SOL    HW2 2504   2.377   3.511   1.351
    1SOL     OW 2505   1.229   1.549   1.485
    1SOL    HW1 2506   1.139   1.579   1.498
    1SOL    HW2 2507   1.279   1.591   1.555
    1SOL     OW 2508   3.321   0.954   3.331
    1SOL    HW1 2509   3.284   0.882   3.382
    1SOL    HW2 2510   3.412   0.961   3.361
    1SOL     OW 2511   2.798   4.164   2.297
    1SOL    HW1 2512   2.797   4.229   2.227
    1SOL    HW2 2513   2.880   4.117   2.286
    1SOL     OW 2514   2.123   1.571   3.322
    1SOL    HW1 2515   2.167   1.578   3.406
    1SOL    HW2 2516   2.086   1.658   3.306
    1SOL     OW 2517   1.231   2.844   0.419
    1SOL    HW1 2518   1.322   2.817   0.405
    1SOL    HW2 2519   1.209   2.809   0.505
    1SOL     OW 2520   1.278   0.913   3.054
    1SOL    HW1 2521   1.225   0.992   3.044
    1SOL    HW2 2522   1.285   0.901   3.148
    1SOL     OW 2523   3.497   0.356   2.377
    1SOL    HW1 2524   3.539   0.331   2.295
    1SOL    HW2 2525   3.522   0.288   2.439
    1SOL     OW 2526   0.542   1.414   0.580
    1SOL    HW1 2527   0.447   1.404   0.570
    1SOL    HW2 2528   0.556   1.409   0.674
    1SOL     OW 2529   1.664   1.542   0.436
    1SOL    HW1 2530   1.581   1.529   0.481
    1SOL    HW2 2531   1.718   1.468   0.463
    1SOL     OW 2532   0.586   2.250   2.792
    1SOL    HW1 2533   0.638   2.276   2.715
    1SOL    HW2 2534   0.650   2.212   2.851
    1SOL     OW 2535   2.738   3.302   1.585
    1SOL    HW1 2536   2.779   3.386   1.566
    1SOL    HW2 2537   2.729   3.301   1.680
    1SOL     OW 2538   3.526   1.730   0.408
    1SOL    HW1 2539   3.432   1.732   0.391
    1SOL    HW2 2540   3.533   1.741   0.503
    1SOL     OW 2541   0.732   3.532   2.188
    1SOL    HW1 2542   0.667   3.523   2.119
    1SOL    HW2 2543   0.684   3.511   2.268
    1SOL     OW 2544   1.114   3.241   3.238
    1SOL    HW1 2545   1.054   3.181   3.195
    1SOL    HW2 2546   1.057   3.302   3.286
    1SOL     OW 2547   3.473   3.038   1.515
    1SOL    HW1 2548   3.494   2.970   1.580
    1SOL    HW2 2549   3.468   3.119   1.566
    1SOL     OW 2550   3.418   2.551   0.087
    1SOL    HW1 2551   3.398   2.470   0.135
    1SOL    HW2 2552   3.341   2.565   0.032
    1SOL     OW 2553   1.671   1.515   0.857
    1SOL    HW1 2554   1.702   1.550   0.774
    1SOL    HW2 2555   1.711   1.428   0.864
    1SOL     OW 2556   1.819   3.591   1.580
    1SOL    HW1 2557   1.761   3.601   1.504
    1SOL    HW2 2558   1.877   3.667   1.576
    1SOL     OW 2559   1.859   0.625   1.350
    1SOL    HW1 2560   1.849   0.664   1.437
    1SOL    HW2 2561   1.772   0.633   1.310
    1SOL     OW 2562   1.786   0.621   2.883
    1SOL    HW1 2563   1.869   0.634   2.837
    1SOL    HW2 2564   1.721   0.615   2.813
    1SOL     OW 2565   1.922   2.100   1.972
    1SOL    HW1 2566   2.016   2.109   1.957
    1SOL    HW2 2567   1.907   2.006   1.980
    1SOL     OW 2568   1.960   0.438   2.120
    1SOL    HW1 2569   1.939   0.347   2.100
    1SOL    HW2 2570   2.046   0.434   2.163
    1SOL     OW 2571   2.449   1.303   0.561
    1SOL    HW1 2572   2.534   1.293   0.603
    1SOL    HW2 2573   2.394   1.346   0.627
    1SOL     OW 2574   0.823   3.829   0.976
    1SOL    HW1 2575   0.842   3.744   0.934
    1SOL    HW2 2576   0.809   3.889   0.903
    1SOL     OW 2577   0.978   0.788   1.468
    1SOL    HW1 2578   0.965   0.693   1.472
    1SOL    HW2 2579   0.900   0.824   1.510
    1SOL     OW 2580   3.424   3.759   1.967
    1SOL    HW1 2581   3.414   3.694   1.898
    1SOL    HW2 2582   3.481   3.826   1.929
    1SOL     OW 2583   2.619   1.791   3.279
    1SOL    HW1 2584   2.592   1.708   3.241
    1SOL    HW2 2585   2.596   1.784   3.372
    1SOL     OW 2586   2.179   0.552   1.142
    1SOL    HW1 2587   2.114   0.622   1.139
    1SOL    HW2 2588   2.258   0.595   1.175
    1SOL     OW 2589   0.784   0.267   1.172
    1SOL    HW1 2590   0.719   0.313   1.118
    1SOL    HW2 2591   0.746   0.180   1.185
    1SOL     OW 2592   2.479   1.778   1.161
    1SOL    HW1 2593   2.463   1.856   1.108
    1SOL    HW2 2594   2.482   1.706   1.098
    1SOL     OW 2595   0.487   3.530   3.126
    1SOL    HW1 2596   0.393   3.521   3.106
    1SOL    HW2 2597   0.516   3.602   3.071
    1SOL     OW 2598   2.682   3.204   0.244
    1SOL    HW1 2599   2.726   3.244   0.169
    1SOL    HW2 2600   2.624   3.272   0.278
    1SOL     OW 2601   1.331   3.437   1.831
    1SOL    HW1 2602   1.392   3.433   1.756
    1SOL    HW2 2603   1.376   3.390   1.901
    1SOL     OW 2604   0.550   3.106   3.082
    1SOL    HW1 2605   0.508   3.021   3.067
    1SOL    HW2 2606   0.478   3.169   3.073
    1SOL     OW 2607   2.729   0.376   0.882
    1SOL    HW1 2608   2.701   0.359   0.792
    1SOL    HW2 2609   2.705   0.296   0.929
    1SOL     OW 2610   2.937   2.577   2.017
    1SOL    HW1 2611   2.843   2.588   2.002
    1SOL    HW2 2612   2.966   2.518   1.947
    1SOL     OW 2613   1.067   2.322   1.211
    1SOL    HW1 2614   1.023   2.342   1.294
    1SOL    HW2 2615   1.055   2.401   1.158
    1SOL     OW 2616   1.745   1.260   0.498
    1SOL    HW1 2617   1.835   1.276   0.471
    1SOL    HW2 2618   1.712   1.197   0.434
    1SOL     OW 2619   3.608   0.139   1.343
    1SOL    HW1 2620   3.650   0.129   1.428
    1SOL    HW2 2621   3.573   0.052   1.323
    1SOL     OW 2622   2.775   0.726   1.410
    1SOL    HW1 2623   2.720   0.657   1.372
    1SOL    HW2 2624   2.840   0.745   1.343
    1SOL     OW 2625   1.866   0.187   2.026
    1SOL    HW1 2626   1.883   0.149   1.940
    1SOL    HW2 2627   1.771   0.194   2.031
    1SOL     OW 2628   1.283   2.638   0.992
    1SOL    HW1 2629   1.341   2.567   0.966
    1SOL    HW2 2630   1.206   2.594   1.027
    1SOL     OW 2631   2.210   0.689   2.276
    1SOL    HW1 2632   2.166   0.632   2.213
    1SOL    HW2 2633   2.296   0.707   2.237
    1SOL     OW 2634   1.929   3.392   1.382
    1SOL    HW1 2635   1.950   3.350   1.466
    1SOL    HW2 2636   1.953   3.327   1.316
    1SOL     OW 2637   2.086   1.868   0.366
    1SOL    HW1 2638   2.004   1.882   0.318
    1SOL    HW2 2639   2.155   1.883   0.301
    1SOL     OW 2640   2.831   3.083   0.808
    1SOL    HW1 2641   2.781   3.157   0.774
    1SOL    HW2 2642   2.895   3.064   0.740
    1SOL     OW 2643   0.205   3.139   1.755
    1SOL    HW1 2644   0.121   3.178   1.730
    1SOL    HW2 2645   0.183   3.073   1.820
    1SOL     OW 2646   3.614   0.343   2.119
    1SOL    HW1 2647   3.622   0.280   2.047
    1SOL    HW2 2648   3.696   0.335   2.167
    1SOL     OW 2649   2.871   1.215   1.985
    1SOL    HW1 2650   2.849   1.258   1.903
    1SOL    HW2 2651   2.874   1.121   1.964
    1SOL     OW 2652   2.214   0.112   1.429
    1SOL    HW1 2653   2.297   0.097   1.473
    1SOL    HW2 2654   2.219   0.203   1.398
    1SOL     OW 2655   1.527   0.011   0.775
    1SOL    HW1 2656   1.564  -0.077   0.782
    1SOL    HW2 2657   1.433  -0.003   0.765
    1SOL     OW 2658   0.764   3.529   0.187
    1SOL    HW1 2659   0.714   3.595   0.235
    1SOL    HW2 2660   0.743   3.446   0.232
    1SOL     OW 2661   3.207   3.511   1.252
    1SOL    HW1 2662   3.228   3.567   1.177
    1SOL    HW2 2663   3.236   3.424   1.226
    1SOL     OW 2664   0.189   1.543   1.080
    1SOL    HW1 2665   0.217   1.597   1.154
    1SOL    HW2 2666   0.251   1.470   1.078
    1SOL     OW 2667   1.652   3.960   1.357
    1SOL    HW1 2668   1.723   3.951   1.422
    1SOL    HW2 2669   1.694   4.002   1.282
    1SOL     OW 2670   0.558   3.579   0.413
    1SOL    HW1 2671   0.481   3.597   0.466
    1SOL    HW2 2672   0.537   3.499   0.366
    1SOL     OW 2673   1.495   3.431   2.066
    1SOL    HW1 2674   1.582   3.427   2.025
    1SOL    HW2 2675   1.489   3.351   2.117
    1SOL     OW 2676   3.617   1.527   0.239
    1SOL    HW1 2677   3.536   1.510   0.192
    1SOL    HW2 2678   3.594   1.592   0.305
    1SOL     OW 2679   1.045   0.878   3.270
    1SOL    HW1 2680   1.000   0.911   3.349
    1SOL    HW2 2681   1.039   0.951   3.208
    1SOL     OW 2682   3.153   3.576   0.458
    1SOL    HW1 2683   3.110   3.579   0.543
    1SOL    HW2 2684   3.206   3.656   0.455
    1SOL     OW 2685   0.448   0.417   2.661
    1SOL    HW1 2686   0.436   0.512   2.665
    1SOL    HW2 2687   0.498   0.403   2.580
    1SOL     OW 2688   2.765   2.622   2.704
    1SOL    HW1 2689   2.793   2.532   2.691
    1SOL    HW2 2690   2.841   2.675   2.680
    1SOL     OW 2691   1.766   1.014   1.581
    1SOL    HW1 2692   1.846   0.967   1.561
    1SOL    HW2 2693   1.704   0.946   1.609
    1SOL     OW 2694   0.197   3.086   2.633
    1SOL    HW1 2695   0.179   3.154   2.698
    1SOL    HW2 2696   0.158   3.120   2.552
    1SOL     OW 2697   1.466   4.125   2.338
    1SOL    HW1 2698   1.557   4.114   2.309
    1SOL    HW2 2699   1.441   4.038   2.369
    1SOL     OW 2700   1.572   3.642   2.303
    1SOL    HW1 2701   1.542   3.594   2.226
    1SOL    HW2 2702   1.651   3.688   2.274
    1SOL     OW 2703   2.448   0.125   3.322
    1SOL    HW1 2704   2.381   0.190   3.302
    1SOL    HW2 2705   2.402   0.042   3.325
    1SOL     OW 2706   0.951   4.066   1.807
    1SOL    HW1 2707   0.933   4.051   1.899
    1SOL    HW2 2708   1.046   4.056   1.799
    1SOL     OW 2709   0.974   0.526   1.461
    1SOL    HW1 2710   1.003   0.435   1.455
    1SOL    HW2 2711   0.896   0.523   1.516
    1SOL     OW 2712   1.710   2.993   1.099
    1SOL    HW1 2713   1.669   2.909   1.078
    1SOL    HW2 2714   1.753   3.020   1.018
    1SOL     OW 2715   2.229   2.602   0.099
    1SOL    HW1 2716   2.253   2.683   0.143
    1SOL    HW2 2717   2.292   2.595   0.027
    1SOL     OW 2718   2.576   2.310   2.118
    1SOL    HW1 2719   2.658   2.260   2.119
    1SOL    HW2 2720   2.603   2.400   2.140
    1SOL     OW 2721   0.770   2.063   0.246
    1SOL    HW1 2722   0.728   1.981   0.221
    1SOL    HW2 2723   0.706   2.107   0.301
    1SOL     OW 2724   2.788   2.057   2.768
    1SOL    HW1 2725   2.813   2.102   2.849
    1SOL    HW2 2726   2.707   2.011   2.790
    1SOL     OW 2727   1.486   2.458   0.955
    1SOL    HW1 2728   1.542   2.397   1.004
    1SOL    HW2 2729   1.503   2.437   0.863
    1SOL     OW 2730   1.420   0.989   0.713
    1SOL    HW1 2731   1.430   1.010   0.806
    1SOL    HW2 2732   1.329   0.961   0.704
    1SOL     OW 2733   1.616   0.184   3.067
    1SOL    HW1 2734   1.675   0.249   3.106
    1SOL    HW2 2735   1.590   0.222   2.983
    1SOL     OW 2736   1.691   2.974   0.450
    1SOL    HW1 2737   1.693   3.046   0.512
    1SOL    HW2 2738   1.680   2.896   0.504
    1SOL     OW 2739   0.923   3.173   2.968
    1SOL    HW1 2740   0.896   3.261   2.993
    1SOL    HW2 2741   0.854   3.141   2.911
    1SOL     OW 2742   0.268   1.693   1.325
    1SOL    HW1 2743   0.186   1.657   1.359
    1SOL    HW2 2744   0.325   1.701   1.401
    1SOL     OW 2745   1.017   3.609   0.105
    1SOL    HW1 2746   0.932   3.578   0.138
    1SOL    HW2 2747   1.019   3.582   0.014
    1SOL     OW 2748   2.511   1.422   1.424
    1SOL    HW1 2749   2.552   1.424   1.337
    1SOL    HW2 2750   2.502   1.329   1.444
    1SOL     OW 2751   2.097   0.220   0.707
    1SOL    HW1 2752   2.115   0.308   0.739
    1SOL    HW2 2753   2.001   0.213   0.709
    1SOL     OW 2754   1.618   2.687   2.582
    1SOL    HW1 2755   1.528   2.692   2.612
    1SOL    HW2 2756   1.620   2.736   2.500
    1SOL     OW 2757   2.294   0.906   0.306
    1SOL    HW1 2758   2.369   0.949   0.265
    1SOL    HW2 2759   2.281   0.826   0.255
    1SOL     OW 2760   0.022  -0.016   2.364
    1SOL    HW1 2761   0.109  -0.041   2.333
    1SOL    HW2 2762  -0.037  -0.037   2.291
    1SOL     OW 2763   3.167   1.198   2.172
    1SOL    HW1 2764   3.080   1.167   2.145
    1SOL    HW2 2765   3.157   1.293   2.180
    1SOL     OW 2766   1.746   1.836   0.517
    1SOL    HW1 2767   1.667   1.823   0.464
    1SOL    HW2 2768   1.777   1.747   0.535
    1SOL     OW 2769   2.055   3.753   1.056
    1SOL    HW1 2770   1.972   3.796   1.038
    1SOL    HW2 2771   2.041   3.707   1.139
    1SOL     OW 2772   2.001   0.861   3.132
    1SOL    HW1 2773   2.039   0.944   3.161
    1SOL    HW2 2774   2.029   0.852   3.041
    1SOL     OW 2775   0.157   2.950   1.154
    1SOL    HW1 2776   0.137   2.879   1.216
    1SOL    HW2 2777   0.171   2.906   1.070
    1SOL     OW 2778   1.020   0.182   2.050
    1SOL    HW1 2779   1.113   0.192   2.027
    1SOL    HW2 2780   0.976   0.251   2.001
    1SOL     OW 2781   1.680   0.528   2.044
    1SOL    HW1 2782   1.671   0.483   1.959
    1SOL    HW2 2783   1.761   0.495   2.081
    1SOL     OW 2784   3.369   1.082   0.360
    1SOL    HW1 2785   3.431   1.152   0.337
    1SOL    HW2 2786   3.304   1.126   0.415
    1SOL     OW 2787   0.528   0.794   1.255
    1SOL    HW1 2788   0.591   0.724   1.235
    1SOL    HW2 2789   0.473   0.799   1.177
    1SOL     OW 2790   3.394   3.276   0.232
    1SOL    HW1 2791   3.403   3.222   0.311
    1SOL    HW2 2792   3.432   3.360   0.257
    1SOL     OW 2793   0.704   0.857   0.628
    1SOL    HW1 2794   0.749   0.856   0.543
    1SOL    HW2 2795   0.667   0.944   0.635
    1SOL     OW 2796   0.774   1.306   0.742
    1SOL    HW1 2797   0.849   1.261   0.782
    1SOL    HW2 2798   0.736   1.357   0.814
    1SOL     OW 2799   2.926   2.612   2.298
    1SOL    HW1 2800   3.008   2.662   2.294
    1SOL    HW2 2801   2.908   2.587   2.208
    1SOL     OW 2802   1.001   3.577   0.484
    1SOL    HW1 2803   0.984   3.502   0.427
    1SOL    HW2 2804   1.076   3.550   0.536
    1SOL     OW 2805   2.517   0.647   1.966
    1SOL    HW1 2806   2.526   0.683   2.054
    1SOL    HW2 2807   2.605   0.617   1.943
    1SOL     OW 2808   0.197   1.609   2.619
    1SOL    HW1 2809   0.191   1.546   2.691
    1SOL    HW2 2810   0.134   1.579   2.554
    1SOL     OW 2811   2.332   2.090   0.459
    1SOL    HW1 2812   2.314   2.003   0.495
    1SOL    HW2 2813   2.259   2.144   0.490
    1SOL     OW 2814   0.887   2.540   3.422
    1SOL    HW1 2815   0.845   2.581   3.346
    1SOL    HW2 2816   0.832   2.465   3.443
    1SOL     OW 2817   2.201   1.270   2.498
    1SOL    HW1 2818   2.210   1.262   2.403
    1SOL    HW2 2819   2.126   1.329   2.510
    1SOL     OW 2820   2.054   3.003   2.304
    1SOL    HW1 2821   2.061   3.031   2.396
    1SOL    HW2 2822   1.975   3.045   2.272
    1SOL     OW 2823   1.645   2.060   3.013
    1SOL    HW1 2824   1.566   2.007   3.005
    1SOL    HW2 2825   1.692   2.022   3.087
    1SOL     OW 2826   1.518   3.404   3.012
    1SOL    HW1 2827   1.561   3.324   3.041
    1SOL    HW2 2828   1.590   3.466   2.999
    1SOL     OW 2829   1.474   1.832   3.343
    1SOL    HW1 2830   1.398   1.890   3.348
    1SOL    HW2 2831   1.513   1.836   3.431
    1SOL     OW 2832   0.270   3.591   1.753
    1SOL    HW1 2833   0.181   3.590   1.718
    1SOL    HW2 2834   0.301   3.501   1.744
    1SOL     OW 2835   1.465   1.377   1.366
    1SOL    HW1 2836   1.387   1.420   1.401
    1SOL    HW2 2837   1.497   1.436   1.298
    1SOL     OW 2838   0.892   3.994   2.087
    1SOL    HW1 2839   0.817   4.028   2.137
    1SOL    HW2 2840   0.897   3.902   2.111
    1SOL     OW 2841   0.765   1.669   1.998
    1SOL    HW1 2842   0.686   1.617   1.983
    1SOL    HW2 2843   0.800   1.685   1.910
    1SOL     OW 2844   1.918   0.256   2.885
    1SOL    HW1 2845   1.872   0.318   2.941
    1SOL    HW2 2846   1.968   0.201   2.946
    1SOL     OW 2847   2.962   1.181   0.467
    1SOL    HW1 2848   2.878   1.136   0.464
    1SOL    HW2 2849   2.960   1.231   0.548
    1SOL     OW 2850   0.435   1.111   2.621
    1SOL    HW1 2851   0.462   1.166   2.547
    1SOL    HW2 2852   0.415   1.174   2.690
    1SOL     OW 2853   1.147   0.009   2.260
    1SOL    HW1 2854   1.237  -0.015   2.283
    1SOL    HW2 2855   1.156   0.062   2.181
    1SOL     OW 2856   0.915   1.899   2.405
    1SOL    HW1 2857   0.859   1.917   2.330
    1SOL    HW2 2858   1.004   1.903   2.369
    1SOL     OW 2859   0.691   1.593   1.403
    1SOL    HW1 2860   0.625   1.662   1.409
    1SOL    HW2 2861   0.692   1.569   1.310
    1SOL     OW 2862   2.271   1.072   0.513
    1SOL    HW1 2863   2.326   1.147   0.488
    1SOL    HW2 2864   2.269   1.017   0.435
    1SOL     OW 2865   2.452   3.425   3.328
    1SOL    HW1 2866   2.501   3.457   3.252
    1SOL    HW2 2867   2.361   3.447   3.309
    1SOL     OW 2868   1.216   1.928   1.604
    1SOL    HW1 2869   1.249   1.846   1.642
    1SOL    HW2 2870   1.266   1.997   1.646
    1SOL     OW 2871   0.867   0.034   0.775
    1SOL    HW1 2872   0.772   0.039   0.776
    1SOL    HW2 2873   0.888  -0.001   0.689
    1SOL     OW 2874   2.086   1.015   2.661
    1SOL    HW1 2875   2.041   0.951   2.606
    1SOL    HW2 2876   2.115   1.083   2.600
    1SOL     OW 2877   2.541   1.055   1.193
    1SOL    HW1 2878   2.627   1.072   1.154
    1SOL    HW2 2879   2.526   1.129   1.251
    1SOL     OW 2880   0.149   0.426   0.863
    1SOL    HW1 2881   0.099   0.433   0.944
    1SOL    HW2 2882   0.164   0.332   0.852
    1SOL     OW 2883   2.716   0.507   1.238
    1SOL    HW1 2884   2.735   0.557   1.159
    1SOL    HW2 2885   2.647   0.445   1.211
    1SOL     OW 2886   2.767   0.350   0.419
    1SOL    HW1 2887   2.699   0.374   0.356
    1SOL    HW2 2888   2.848   0.385   0.382
    1SOL     OW 2889   0.934   3.116   0.810
    1SOL    HW1 2890   1.000   3.149   0.749
    1SOL    HW2 2891   0.871   3.188   0.818
    1SOL     OW 2892   1.025   2.768   3.142
    1SOL    HW1 2893   0.989   2.807   3.062
    1SOL    HW2 2894   1.012   2.674   3.131
    1SOL     OW 2895   0.912   2.285   2.782
    1SOL    HW1 2896   0.841   2.329   2.735
    1SOL    HW2 2897   0.914   2.197   2.745
    1SOL     OW 2898   2.228   0.684   1.976
    1SOL    HW1 2899   2.301   0.640   1.932
    1SOL    HW2 2900   2.267   0.762   2.015
    1SOL     OW 2901   1.564   0.576   3.231
    1SOL    HW1 2902   1.537   0.617   3.313
    1SOL    HW2 2903   1.613   0.499   3.257
    1SOL     OW 2904   3.555   2.372   0.512
    1SOL    HW1 2905   3.614   2.384   0.586
    1SOL    HW2 2906   3.489   2.441   0.524
    1SOL     OW 2907   1.611   1.729   2.970
    1SOL    HW1 2908   1.530   1.780   2.977
    1SOL    HW2 2909   1.669   1.768   3.035
    1SOL     OW 2910   3.109   1.350   1.268
    1SOL    HW1 2911   3.097   1.439   1.301
    1SOL    HW2 2912   3.054   1.345   1.190
    1SOL     OW 2913   2.700   4.034   1.319
    1SOL    HW1 2914   2.709   4.093   1.394
    1SOL    HW2 2915   2.626   4.070   1.269
    1SOL     OW 2916   1.479   2.460   0.177
    1SOL    HW1 2917   1.522   2.540   0.206
    1SOL    HW2 2918   1.395   2.461   0.222
    1SOL     OW 2919   0.074   1.196   1.379
    1SOL    HW1 2920   0.153   1.145   1.362
    1SOL    HW2 2921   0.020   1.183   1.302
    1SOL     OW 2922   0.203   0.533   1.544
    1SOL    HW1 2923   0.240   0.618   1.522
    1SOL    HW2 2924   0.279   0.476   1.556
    1SOL     OW 2925   1.722   0.663   0.527
    1SOL    HW1 2926   1.702   0.721   0.453
    1SOL    HW2 2927   1.764   0.587   0.486
    1SOL     OW 2928   1.361   1.414   2.814
    1SOL    HW1 2929   1.433   1.452   2.763
    1SOL    HW2 2930   1.396   1.332   2.847
    1SOL     OW 2931   3.185   0.989   3.010
    1SOL    HW1 2932   3.095   0.974   2.982
    1SOL    HW2 2933   3.235   0.916   2.974
    1SOL     OW 2934   0.759   1.877   0.823
    1SOL    HW1 2935   0.697   1.940   0.858
    1SOL    HW2 2936   0.836   1.929   0.800
    1SOL     OW 2937   1.050   2.392   0.509
    1SOL    HW1 2938   0.966   2.433   0.490
    1SOL    HW2 2939   1.043   2.364   0.601
    1SOL     OW 2940   0.542   2.056   1.041
    1SOL    HW1 2941   0.514   2.095   0.958
    1SOL    HW2 2942   0.491   1.975   1.048
    1SOL     OW 2943   3.209   1.732   3.087
    1SOL    HW1 2944   3.248   1.809   3.128
    1SOL    HW2 2945   3.186   1.762   2.998
    1SOL     OW 2946   0.171   0.680   1.192
    1SOL    HW1 2947   0.111   0.618   1.234
    1SOL    HW2 2948   0.123   0.762   1.190
    1SOL     OW 2949   3.070   1.779   0.959
    1SOL    HW1 2950   3.133   1.792   0.889
    1SOL    HW2 2951   2.991   1.747   0.914
    1SOL     OW 2952   0.789   0.990   2.565
    1SOL    HW1 2953   0.744   1.067   2.599
    1SOL    HW2 2954   0.738   0.916   2.597
    1SOL     OW 2955   0.606   3.102   1.730
    1SOL    HW1 2956   0.619   3.121   1.823
    1SOL    HW2 2957   0.542   3.031   1.729
    1SOL     OW 2958   3.324   2.213   0.211
    1SOL    HW1 2959   3.413   2.183   0.191
    1SOL    HW2 2960   3.275   2.133   0.228
    1SOL     OW 2961   2.270   3.319   1.024
    1SOL    HW1 2962   2.299   3.407   1.047
    1SOL    HW2 2963   2.258   3.275   1.108
    1SOL     OW 2964   3.249   1.691   1.417
    1SOL    HW1 2965   3.246   1.786   1.411
    1SOL    HW2 2966   3.159   1.666   1.437
    1SOL     OW 2967   2.365   1.274   3.064
    1SOL    HW1 2968   2.460   1.280   3.053
    1SOL    HW2 2969   2.331   1.265   2.974
    1SOL     OW 2970   1.955   3.456   2.186
    1SOL    HW1 2971   2.017   3.383   2.178
    1SOL    HW2 2972   1.898   3.431   2.258
    1SOL     OW 2973   1.138   2.675   0.214
    1SOL    HW1 2974   1.052   2.708   0.189
    1SOL    HW2 2975   1.200   2.742   0.185
    1SOL     OW 2976   3.318   0.537   2.030
    1SOL    HW1 2977   3.325   0.483   1.951
    1SOL    HW2 2978   3.405   0.531   2.070
    1SOL     OW 2979   1.853   1.364   1.776
    1SOL    HW1 2980   1.855   1.311   1.695
    1SOL    HW2 2981   1.898   1.310   1.840
    1SOL     OW 2982   3.222   0.673   1.040
    1SOL    HW1 2983   3.143   0.625   1.013
    1SOL    HW2 2984   3.263   0.698   0.958
    1SOL     OW 2985   0.346   1.776   0.176
    1SOL    HW1 2986   0.379   1.686   0.170
    1SOL    HW2 2987   0.419   1.827   0.211
    1SOL     OW 2988   1.990   0.738   1.146
    1SOL    HW1 2989   1.990   0.817   1.200
    1SOL    HW2 2990   1.946   0.672   1.199
    1SOL     OW 2991   0.341   3.260   2.081
    1SOL    HW1 2992   0.254   3.265   2.040
    1SOL    HW2 2993   0.346   3.339   2.135
    1SOL     OW 2994   0.328   1.397   0.798
    1SOL    HW1 2995   0.253   1.381   0.857
    1SOL    HW2 2996   0.292   1.383   0.711
    1SOL     OW 2997   1.206   3.128   2.282
    1SOL    HW1 2998   1.286   3.167   2.316
    1SOL    HW2 2999   1.172   3.075   2.354
    1SOL     OW 3000   3.358   3.518   0.820
    1SOL    HW1 3001   3.428   3.534   0.884
    1SOL    HW2 3002   3.372   3.585   0.752
    1SOL     OW 3003   2.668   1.172   0.407
    1SOL    HW1 3004   2.656   1.200   0.316
    1SOL    HW2 3005   2.676   1.077   0.403
    1SOL     OW 3006   3.244   2.571   2.525
    1SOL    HW1 3007   3.266   2.482   2.501
    1SOL    HW2 3008   3.299   2.590   2.601
    1SOL     OW 3009   0.401   2.117   1.431
    1SOL    HW1 3010   0.341   2.174   1.479
    1SOL    HW2 3011   0.363   2.111   1.343
    1SOL     OW 3012   2.377   0.921   2.009
    1SOL    HW1 3013   2.449   0.870   1.973
    1SOL    HW2 3014   2.417   1.002   2.039
    1SOL     OW 3015   1.015   3.664   1.144
    1SOL    HW1 3016   0.974   3.737   1.098
    1SOL    HW2 3017   1.090   3.639   1.089
    1SOL     OW 3018   2.151   1.372   1.726
    1SOL    HW1 3019   2.134   1.451   1.674
    1SOL    HW2 3020   2.114   1.392   1.812
    1SOL     OW 3021   1.744   4.140   1.157
    1SOL    HW1 3022   1.784   4.210   1.105
    1SOL    HW2 3023   1.678   4.184   1.210
    1SOL     OW 3024   1.764   1.938   1.748
    1SOL    HW1 3025   1.859   1.949   1.742
    1SOL    HW2 3026   1.741   1.974   1.834
    1SOL     OW 3027   2.284   4.141   2.975
    1SOL    HW1 3028   2.294   4.100   2.889
    1SOL    HW2 3029   2.374   4.160   3.002
    1SOL     OW 3030   3.143   0.376   2.940
    1SOL    HW1 3031   3.121   0.316   2.869
    1SOL    HW2 3032   3.100   0.338   3.017
    1SOL     OW 3033   0.486   2.822   3.039
    1SOL    HW1 3034   0.446   2.849   2.956
    1SOL    HW2 3035   0.578   2.806   3.016
    1SOL     OW 3036   2.227   1.476   1.360
    1SOL    HW1 3037   2.249   1.482   1.268
    1SOL    HW2 3038   2.311   1.471   1.405
    1SOL     OW 3039   1.769   1.880   3.206
    1SOL    HW1 3040   1.852   1.884   3.158
    1SOL    HW2 3041   1.795   1.878   3.298
    1SOL     OW 3042   1.814   0.149   1.509
    1SOL    HW1 3043   1.822   0.218   1.443
    1SOL    HW2 3044   1.887   0.089   1.489
    1SOL     OW 3045   3.624   3.963   2.539
    1SOL    HW1 3046   3.561   3.948   2.468
    1SOL    HW2 3047   3.670   4.043   2.513
    1SOL     OW 3048   1.194   1.888   0.991
    1SOL    HW1 3049   1.178   1.812   0.935
    1SOL    HW2 3050   1.151   1.866   1.073
    1SOL     OW 3051   0.376   3.989   1.797
    1SOL    HW1 3052   0.339   4.057   1.854
    1SOL    HW2 3053   0.322   3.912   1.813
    1SOL     OW 3054   3.557   4.109   1.215
    1SOL    HW1 3055   3.547   4.032   1.160
    1SOL    HW2 3056   3.471   4.121   1.257
    1SOL     OW 3057   1.807   2.743   2.079
    1SOL    HW1 3058   1.724   2.767   2.037
    1SOL    HW2 3059   1.862   2.710   2.008
    1SOL     OW 3060   1.047   2.799   0.960
    1SOL    HW1 3061   1.057   2.892   0.983
    1SOL    HW2 3062   1.136   2.771   0.936
    1SOL     OW 3063   3.009   0.714   1.241
    1SOL    HW1 3064   3.018   0.659   1.163
    1SOL    HW2 3065   3.098   0.721   1.276
    1SOL     OW 3066   1.985   0.022   3.081
    1SOL    HW1 3067   2.070  -0.014   3.054
    1SOL    HW2 3068   1.920  -0.032   3.036
    1SOL     OW 3069   0.282   0.596   1.961
    1SOL    HW1 3070   0.301   0.536   1.889
    1SOL    HW2 3071   0.304   0.546   2.040
    1SOL     OW 3072   2.227   3.593   2.103
    1SOL    HW1 3073   2.282   3.517   2.121
    1SOL    HW2 3074   2.138   3.563   2.118
    1SOL     OW 3075   1.001   2.323   2.299
    1SOL    HW1 3076   0.983   2.351   2.389
    1SOL    HW2 3077   1.062   2.250   2.309
    1SOL     OW 3078   1.954   0.675   1.941
    1SOL    HW1 3079   2.049   0.669   1.942
    1SOL    HW2 3080   1.924   0.601   1.995
    1SOL     OW 3081   1.418   1.091   1.295
    1SOL    HW1 3082   1.432   1.184   1.314
    1SOL    HW2 3083   1.328   1.074   1.323
    1SOL     OW 3084   2.986   3.101   0.279
    1SOL    HW1 3085   2.899   3.132   0.256
    1SOL    HW2 3086   3.043   3.133   0.208
    1SOL     OW 3087   2.408   1.056   0.966
    1SOL    HW1 3088   2.465   1.072   1.041
    1SOL    HW2 3089   2.325   1.099   0.989
    1SOL     OW 3090   2.600   4.153   2.005
    1SOL    HW1 3091   2.526   4.178   1.949
    1SOL    HW2 3092   2.656   4.230   2.006
    1SOL     OW 3093   1.988   1.955   3.017
    1SOL    HW1 3094   2.063   1.938   2.959
    1SOL    HW2 3095   1.976   2.050   3.013
    1SOL     OW 3096   0.096   3.495   0.677
    1SOL    HW1 3097   0.096   3.432   0.749
    1SOL    HW2 3098   0.064   3.576   0.717
    1SOL     OW 3099   2.778   2.870   2.454
    1SOL    HW1 3100   2.773   2.945   2.514
    1SOL    HW2 3101   2.843   2.812   2.493
    1SOL     OW 3102   2.866   1.148   0.043
    1SOL    HW1 3103   2.900   1.066   0.080
    1SOL    HW2 3104   2.781   1.123   0.006
    1SOL     OW 3105   2.006   2.902   0.532
    1SOL    HW1 3106   2.062   2.867   0.601
    1SOL    HW2 3107   1.919   2.907   0.572
    1SOL     OW 3108   3.386   1.276   1.351
    1SOL    HW1 3109   3.402   1.340   1.421
    1SOL    HW2 3110   3.301   1.302   1.315
    1SOL     OW 3111   2.680   0.085   3.151
    1SOL    HW1 3112   2.751   0.146   3.169
    1SOL    HW2 3113   2.602   0.129   3.185
    1SOL     OW 3114   3.462   0.686   1.155
    1SOL    HW1 3115   3.505   0.769   1.178
    1SOL    HW2 3116   3.387   0.712   1.102
    1SOL     OW 3117   3.335   1.024   1.471
    1SOL    HW1 3118   3.391   1.093   1.436
    1SOL    HW2 3119   3.247   1.062   1.472
    1SOL     OW 3120   1.204   2.293   2.725
    1SOL    HW1 3121   1.249   2.265   2.645
    1SOL    HW2 3122   1.117   2.253   2.719
    1SOL     OW 3123   2.005   3.570   3.089
    1SOL    HW1 3124   2.038   3.598   3.003
    1SOL    HW2 3125   1.912   3.556   3.075
    1SOL     OW 3126   2.407   0.037   0.599
    1SOL    HW1 3127   2.369   0.124   0.584
    1SOL    HW2 3128   2.359   0.003   0.674
    1SOL     OW 3129   2.075   3.633   1.311
    1SOL    HW1 3130   2.027   3.625   1.393
    1SOL    HW2 3131   2.140   3.563   1.315
    1SOL     OW 3132   1.057   2.921   2.409
    1SOL    HW1 3133   1.135   2.869   2.390
    1SOL    HW2 3134   0.987   2.857   2.418
    1SOL     OW 3135   2.951   1.337   2.436
    1SOL    HW1 3136   3.036   1.377   2.451
    1SOL    HW2 3137   2.933   1.288   2.516
    1SOL     OW 3138   1.832   0.298   0.755
    1SOL    HW1 3139   1.751   0.296   0.806
    1SOL    HW2 3140   1.806   0.271   0.667
    1SOL     OW 3141   2.950   1.778   0.407
    1SOL    HW1 3142   3.008   1.787   0.482
    1SOL    HW2 3143   2.864   1.805   0.441
    1SOL     OW 3144   3.186   2.379   2.105
    1SOL    HW1 3145   3.248   2.437   2.061
    1SOL    HW2 3146   3.120   2.360   2.038
    1SOL     OW 3147   3.238   1.825   1.846
    1SOL    HW1 3148   3.155   1.864   1.874
    1SOL    HW2 3149   3.215   1.772   1.770
    1SOL     OW 3150   0.440   3.481   1.404
    1SOL    HW1 3151   0.492   3.420   1.456
    1SOL    HW2 3152   0.451   3.565   1.449
    1SOL     OW 3153   0.592   4.020   3.042
    1SOL    HW1 3154   0.552   3.964   3.109
    1SOL    HW2 3155   0.638   4.087   3.092
    1SOL     OW 3156   2.966   3.446   3.068
    1SOL    HW1 3157   2.972   3.456   2.973
    1SOL    HW2 3158   3.031   3.379   3.090
    1SOL     OW 3159   3.176   2.705   2.046
    1SOL    HW1 3160   3.088   2.667   2.052
    1SOL    HW2 3161   3.182   2.763   2.122
    1SOL     OW 3162   3.251   1.674   2.334
    1SOL    HW1 3163   3.249   1.770   2.333
    1SOL    HW2 3164   3.303   1.651   2.257
    1SOL     OW 3165   1.032   0.646   2.138
    1SOL    HW1 3166   0.984   0.580   2.188
    1SOL    HW2 3167   0.983   0.655   2.056
    1SOL     OW 3168   3.398   0.620   0.297
    1SOL    HW1 3169   3.374   0.712   0.285
    1SOL    HW2 3170   3.410   0.610   0.391
    1SOL     OW 3171   2.586   3.464   1.061
    1SOL    HW1 3172   2.612   3.527   1.128
    1SOL    HW2 3173   2.657   3.468   0.996
    1SOL     OW 3174   0.713   0.568   1.234
    1SOL    HW1 3175   0.723   0.538   1.143
    1SOL    HW2 3176   0.793   0.541   1.277
    1SOL     OW 3177   1.857   2.222   2.962
    1SOL    HW1 3178   1.787   2.157   2.972
    1SOL    HW2 3179   1.892   2.207   2.874
    1SOL     OW 3180   2.648   3.508   3.168
    1SOL    HW1 3181   2.708   3.453   3.219
    1SOL    HW2 3182   2.701   3.584   3.143
    1SOL     OW 3183   0.983   2.493   2.533
    1SOL    HW1 3184   0.951   2.577   2.501
    1SOL    HW2 3185   1.032   2.515   2.612
    1SOL     OW 3186   3.438   3.116   2.991
    1SOL    HW1 3187   3.508   3.069   3.035
    1SOL    HW2 3188   3.364   3.111   3.051
    1SOL     OW 3189   1.600   0.581   2.684
    1SOL    HW1 3190   1.505   0.586   2.671
    1SOL    HW2 3191   1.632   0.538   2.605
    1SOL     OW 3192   3.357   3.826   2.907
    1SOL    HW1 3193   3.328   3.907   2.949
    1SOL    HW2 3194   3.452   3.830   2.911
    1SOL     OW 3195   1.308   1.202   0.578
    1SOL    HW1 3196   1.285   1.160   0.495
    1SOL    HW2 3197   1.328   1.130   0.637
    1SOL     OW 3198   0.812   2.354   0.099
    1SOL    HW1 3199   0.718   2.353   0.118
    1SOL    HW2 3200   0.839   2.262   0.108
    1SOL     OW 3201   0.764   3.922   0.746
    1SOL    HW1 3202   0.723   3.876   0.673
    1SOL    HW2 3203   0.819   3.988   0.704
    1SOL     OW 3204   1.056   3.076   2.650
    1SOL    HW1 3205   1.052   3.002   2.590
    1SOL    HW2 3206   1.037   3.153   2.596
    1SOL     OW 3207   0.925   3.240   2.465
    1SOL    HW1 3208   0.980   3.248   2.387
    1SOL    HW2 3209   0.836   3.250   2.433
    1SOL     OW 3210   3.327   2.176   0.950
    1SOL    HW1 3211   3.332   2.240   1.021
    1SOL    HW2 3212   3.414   2.138   0.946
    1SOL     OW 3213   1.821   2.152   2.697
    1SOL    HW1 3214   1.774   2.199   2.629
    1SOL    HW2 3215   1.896   2.112   2.651
    1SOL     OW 3216   1.995   0.325   1.210
    1SOL    HW1 3217   1.948   0.400   1.247
    1SOL    HW2 3218   2.085   0.357   1.199
    1SOL     OW 3219   0.666   1.407   0.069
    1SOL    HW1 3220   0.594   1.361   0.027
    1SOL    HW2 3221   0.647   1.400   0.163
    1SOL     OW 3222   2.131   4.049   3.417
    1SOL    HW1 3223   2.061   4.000   3.375
    1SOL    HW2 3224   2.089   4.092   3.491
    1SOL     OW 3225   3.292  -0.005   0.295
    1SOL    HW1 3226   3.287  -0.083   0.350
    1SOL    HW2 3227   3.360  -0.024   0.231
    1SOL     OW 3228   1.971   1.302   3.279
    1SOL    HW1 3229   1.977   1.315   3.184
    1SOL    HW2 3230   1.989   1.388   3.317
    1SOL     OW 3231   1.171   1.988   1.287
    1SOL    HW1 3232   1.233   2.057   1.264
    1SOL    HW2 3233   1.206   1.949   1.366
    1SOL     OW 3234   0.034   1.923   1.273
    1SOL    HW1 3235   0.044   1.988   1.203
    1SOL    HW2 3236   0.121   1.918   1.313
    1SOL     OW 3237   3.489   2.584   1.164
    1SOL    HW1 3238   3.436   2.521   1.117
    1SOL    HW2 3239   3.451   2.669   1.142
    1SOL     OW 3240   3.232   2.397   3.315
    1SOL    HW1 3241   3.260   2.473   3.264
    1SOL    HW2 3242   3.311   2.368   3.361
    1SOL     OW 3243   2.208   3.590   2.853
    1SOL    HW1 3244   2.264   3.537   2.910
    1SOL    HW2 3245   2.157   3.526   2.804
    1SOL     OW 3246   2.337   2.704   2.264
    1SOL    HW1 3247   2.380   2.747   2.190
    1SOL    HW2 3248   2.353   2.610   2.250
    1SOL     OW 3249   1.723   2.798   0.664
    1SOL    HW1 3250   1.765   2.816   0.748
    1SOL    HW2 3251   1.665   2.724   0.682
    1SOL     OW 3252   1.464   3.256   0.719
    1SOL    HW1 3253   1.472   3.331   0.778
    1SOL    HW2 3254   1.551   3.245   0.681
    1SOL     OW 3255   3.200   2.223   0.475
    1SOL    HW1 3256   3.257   2.232   0.399
    1SOL    HW2 3257   3.197   2.129   0.492
    1SOL     OW 3258   1.296   3.204   1.086
    1SOL    HW1 3259   1.332   3.158   1.010
    1SOL    HW2 3260   1.366   3.202   1.151
    1SOL     OW 3261   1.342   3.906   3.238
    1SOL    HW1 3262   1.270   3.950   3.192
    1SOL    HW2 3263   1.417   3.964   3.226
    1SOL     OW 3264   3.372   2.831   1.091
    1SOL    HW1 3265   3.395   2.913   1.047
    1SOL    HW2 3266   3.278   2.824   1.080
    1SOL     OW 3267   0.640   1.958   0.573
    1SOL    HW1 3268   0.665   1.982   0.662
    1SOL    HW2 3269   0.629   1.863   0.575
    1SOL     OW 3270   1.553   4.129   3.155
    1SOL    HW1 3271   1.582   4.207   3.108
    1SOL    HW2 3272   1.607   4.127   3.233
    1SOL     OW 3273   1.917   2.574   0.710
    1SOL    HW1 3274   2.012   2.579   0.704
    1SOL    HW2 3275   1.893   2.636   0.779
    1SOL     OW 3276   2.078   2.231   0.479
    1SOL    HW1 3277   1.988   2.259   0.493
    1SOL    HW2 3278   2.094   2.244   0.386
    1SOL     OW 3279   0.979   0.712   0.010
    1SOL    HW1 3280   0.908   0.655   0.041
    1SOL    HW2 3281   0.938   0.768  -0.056
    1SOL     OW 3282   2.600   2.155   2.403
    1SOL    HW1 3283   2.542   2.142   2.328
    1SOL    HW2 3284   2.688   2.155   2.365
    1SOL     OW 3285   2.507   1.049   2.655
    1SOL    HW1 3286   2.477   1.127   2.701
    1SOL    HW2 3287   2.446   1.038   2.582
    1SOL     OW 3288   1.913   0.784   0.018
    1SOL    HW1 3289   1.939   0.751  -0.068
    1SOL    HW2 3290   1.926   0.878   0.013
    1SOL     OW 3291   1.903   3.730   0.249
    1SOL    HW1 3292   1.936   3.797   0.189
    1SOL    HW2 3293   1.819   3.704   0.212
    1SOL     OW 3294   1.352   2.803   0.145
    1SOL    HW1 3295   1.410   2.871   0.181
    1SOL    HW2 3296   1.405   2.760   0.078
    1SOL     OW 3297   1.553   3.948   0.565
    1SOL    HW1 3298   1.564   4.038   0.534
    1SOL    HW2 3299   1.593   3.948   0.652
    1SOL     OW 3300   0.243   3.131   2.999
    1SOL    HW1 3301   0.153   3.100   3.000
    1SOL    HW2 3302   0.268   3.135   3.092
    1SOL     OW 3303   2.484   1.474   2.706
    1SOL    HW1 3304   2.550   1.409   2.682
    1SOL    HW2 3305   2.407   1.422   2.729
    1SOL     OW 3306   1.612   3.967   1.708
    1SOL    HW1 3307   1.704   3.987   1.692
    1SOL    HW2 3308   1.611   3.927   1.795
    1SOL     OW 3309   3.326   3.595   3.187
    1SOL    HW1 3310   3.361   3.539   3.118
    1SOL    HW2 3311   3.344   3.548   3.268
    1SOL     OW 3312   2.716   2.830   1.406
    1SOL    HW1 3313   2.793   2.823   1.351
    1SOL    HW2 3314   2.709   2.923   1.427
    1SOL     OW 3315   1.213   4.127   0.015
    1SOL    HW1 3316   1.274   4.179  -0.037
    1SOL    HW2 3317   1.254   4.041   0.020
    1SOL     OW 3318   0.048   0.724   1.839
    1SOL    HW1 3319  -0.017   0.726   1.909
    1SOL    HW2 3320   0.124   0.680   1.878
    1SOL     OW 3321   0.096   3.562   2.600
    1SOL    HW1 3322   0.107   3.571   2.506
    1SOL    HW2 3323   0.011   3.518   2.610
    1SOL     OW 3324   3.171   2.237   1.382
    1SOL    HW1 3325   3.219   2.320   1.374
    1SOL    HW2 3326   3.119   2.247   1.462
    1SOL     OW 3327   2.129   1.076   2.039
    1SOL    HW1 3328   2.058   1.013   2.052
    1SOL    HW2 3329   2.209   1.024   2.050
    1SOL     OW 3330   3.430   3.333   0.582
    1SOL    HW1 3331   3.520   3.360   0.562
    1SOL    HW2 3332   3.405   3.386   0.657
    1SOL     OW 3333   3.319   2.124   3.226
    1SOL    HW1 3334   3.351   2.068   3.154
    1SOL    HW2 3335   3.337   2.213   3.196
    1SOL     OW 3336   0.327   2.777   2.442
    1SOL    HW1 3337   0.315   2.708   2.377
    1SOL    HW2 3338   0.393   2.742   2.502
    1SOL     OW 3339   0.799   2.726   0.393
    1SOL    HW1 3340   0.808   2.661   0.462
    1SOL    HW2 3341   0.850   2.802   0.424
    1SOL     OW 3342   0.332   3.789   0.612
    1SOL    HW1 3343   0.394   3.808   0.683
    1SOL    HW2 3344   0.317   3.694   0.618
    1SOL     OW 3345   0.482   3.982   2.424
    1SOL    HW1 3346   0.494   4.066   2.470
    1SOL    HW2 3347   0.463   3.920   2.494
    1SOL     OW 3348   1.410   0.167   2.483
    1SOL    HW1 3349   1.477   0.154   2.550
    1SOL    HW2 3350   1.404   0.082   2.439
    1SOL     OW 3351   1.023   0.072   2.687
    1SOL    HW1 3352   0.998   0.017   2.612
    1SOL    HW2 3353   1.082   0.017   2.739
    1SOL     OW 3354   2.652   0.398   2.140
    1SOL    HW1 3355   2.697   0.478   2.165
    1SOL    HW2 3356   2.657   0.397   2.044
    1SOL     OW 3357   3.058   3.828   0.622
    1SOL    HW1 3358   2.997   3.754   0.624
    1SOL    HW2 3359   3.033   3.882   0.697
    1SOL     OW 3360   3.384   1.513   2.959
    1SOL    HW1 3361   3.331   1.446   2.915
    1SOL    HW2 3362   3.325   1.587   2.971
    1SOL     OW 3363   2.962   3.905   1.614
    1SOL    HW1 3364   2.998   3.987   1.580
    1SOL    HW2 3365   2.895   3.880   1.550
    1SOL     OW 3366   2.835   0.082   2.891
    1SOL    HW1 3367   2.760   0.026   2.908
    1SOL    HW2 3368   2.891   0.072   2.968
    1SOL     OW 3369   1.421   3.610   0.601
    1SOL    HW1 3370   1.373   3.687   0.570
    1SOL    HW2 3371   1.456   3.636   0.686
    1SOL     OW 3372   3.239   2.922   2.750
    1SOL    HW1 3373   3.180   2.994   2.727
    1SOL    HW2 3374   3.310   2.927   2.686
    1SOL     OW 3375   2.934   0.976   2.283
    1SOL    HW1 3376   2.980   1.029   2.348
    1SOL    HW2 3377   2.883   0.914   2.336
    1SOL     OW 3378   3.393   2.546   2.002
    1SOL    HW1 3379   3.323   2.609   2.017
    1SOL    HW2 3380   3.396   2.536   1.906
    1SOL     OW 3381   1.727   0.169   2.389
    1SOL    HW1 3382   1.676   0.149   2.467
    1SOL    HW2 3383   1.746   0.263   2.396
    1SOL     OW 3384   3.397   0.621   2.650
    1SOL    HW1 3385   3.304   0.626   2.630
    1SOL    HW2 3386   3.402   0.563   2.727
    1SOL     OW 3387   1.625   0.122   2.641
    1SOL    HW1 3388   1.622   0.041   2.691
    1SOL    HW2 3389   1.626   0.191   2.707
    1SOL     OW 3390   2.899   1.141   2.631
    1SOL    HW1 3391   2.951   1.073   2.588
    1SOL    HW2 3392   2.835   1.092   2.684
    1SOL     OW 3393   1.657   2.546   1.295
    1SOL    HW1 3394   1.642   2.540   1.389
    1SOL    HW2 3395   1.701   2.630   1.283
    1SOL     OW 3396   0.996   4.164   2.418
    1SOL    HW1 3397   0.986   4.075   2.453
    1SOL    HW2 3398   1.073   4.159   2.362
    1SOL     OW 3399   1.091   2.198   0.982
    1SOL    HW1 3400   1.078   2.244   1.065
    1SOL    HW2 3401   1.170   2.146   0.996
    1SOL     OW 3402   2.555   0.690   2.508
    1SOL    HW1 3403   2.536   0.597   2.518
    1SOL    HW2 3404   2.557   0.723   2.598
    1SOL     OW 3405   1.327   0.886   3.323
    1SOL    HW1 3406   1.369   0.829   3.387
    1SOL    HW2 3407   1.237   0.896   3.355
    1SOL     OW 3408   1.328   0.195   0.141
    1SOL    HW1 3409   1.274   0.190   0.220
    1SOL    HW2 3410   1.347   0.103   0.119
    1SOL     OW 3411   2.242   1.845   2.873
    1SOL    HW1 3412   2.294   1.919   2.905
    1SOL    HW2 3413   2.297   1.805   2.806
    1SOL     OW 3414   2.374   2.523   2.703
    1SOL    HW1 3415   2.441   2.491   2.642
    1SOL    HW2 3416   2.372   2.457   2.772
    1SOL     OW 3417   3.086   3.920   0.087
    1SOL    HW1 3418   3.178   3.897   0.094
    1SOL    HW2 3419   3.068   3.971   0.166
    1SOL     OW 3420   0.966   1.158   2.828
    1SOL    HW1 3421   1.002   1.242   2.800
    1SOL    HW2 3422   0.890   1.144   2.772
    1SOL     OW 3423   2.598   1.622   2.893
    1SOL    HW1 3424   2.547   1.574   2.828
    1SOL    HW2 3425   2.681   1.575   2.898
    1SOL     OW 3426   1.025   2.144   0.336
    1SOL    HW1 3427   1.027   2.230   0.378
    1SOL    HW2 3428   0.948   2.147   0.280
    1SOL     OW 3429   1.584   1.562   3.282
    1SOL    HW1 3430   1.652   1.555   3.349
    1SOL    HW2 3431   1.559   1.654   3.281
    1SOL     OW 3432   0.099   1.893   0.289
    1SOL    HW1 3433   0.018   1.848   0.313
    1SOL    HW2 3434   0.153   1.826   0.247
    1SOL     OW 3435   2.767   1.538   0.445
    1SOL    HW1 3436   2.770   1.488   0.363
    1SOL    HW2 3437   2.852   1.582   0.449
    1SOL     OW 3438   0.945   2.038   3.134
    1SOL    HW1 3439   0.957   1.962   3.077
    1SOL    HW2 3440   1.017   2.097   3.110
    1SOL     OW 3441   2.166   2.053   1.793
    1SOL    HW1 3442   2.251   2.065   1.836
    1SOL    HW2 3443   2.185   2.000   1.716
    1SOL     OW 3444   2.310   2.603   3.263
    1SOL    HW1 3445   2.237   2.603   3.325
    1SOL    HW2 3446   2.378   2.653   3.306
    1SOL     OW 3447   3.618   1.272   3.087
    1SOL    HW1 3448   3.542   1.321   3.119
    1SOL    HW2 3449   3.589   1.180   3.087
    1SOL     OW 3450   1.364   0.646   0.703
    1SOL    HW1 3451   1.358   0.588   0.627
    1SOL    HW2 3452   1.308   0.721   0.680
    1SOL     OW 3453   0.084   3.271   1.999
    1SOL    HW1 3454   0.042   3.206   1.943
    1SOL    HW2 3455   0.026   3.347   1.996
    1SOL     OW 3456   0.905   1.434   3.074
    1SOL    HW1 3457   0.983   1.388   3.044
    1SOL    HW2 3458   0.866   1.375   3.139
    1SOL     OW 3459   0.231   3.620   1.119
    1SOL    HW1 3460   0.270   3.534   1.103
    1SOL    HW2 3461   0.273   3.650   1.199
    1SOL     OW 3462   1.735   0.188   3.360
    1SOL    HW1 3463   1.706   0.230   3.441
    1SOL    HW2 3464   1.697   0.101   3.364
    1SOL     OW 3465   3.570   0.612   0.756
    1SOL    HW1 3466   3.586   0.614   0.662
    1SOL    HW2 3467   3.654   0.584   0.794
    1SOL     OW 3468   0.755   1.812   3.226
    1SOL    HW1 3469   0.843   1.774   3.227
    1SOL    HW2 3470   0.743   1.842   3.136
    1SOL     OW 3471   0.410   0.358   0.059
    1SOL    HW1 3472   0.329   0.333   0.014
    1SOL    HW2 3473   0.405   0.454   0.065
    1SOL     OW 3474   0.911   1.411   0.528
    1SOL    HW1 3475   0.845   1.374   0.587
    1SOL    HW2 3476   0.873   1.493   0.498
    1SOL     OW 3477   1.870   3.949   1.528
    1SOL    HW1 3478   1.943   3.914   1.580
    1SOL    HW2 3479   1.909   4.021   1.478
    1SOL     OW 3480   0.009   3.458   2.886
    1SOL    HW1 3481  -0.042   3.462   2.966
    1SOL    HW2 3482  -0.044   3.504   2.821
    1SOL     OW 3483   2.251   2.547   0.645
    1SOL    HW1 3484   2.260   2.533   0.551
    1SOL    HW2 3485   2.309   2.483   0.685
    1SOL     OW 3486   2.255   4.126   0.784
    1SOL    HW1 3487   2.185   4.063   0.768
    1SOL    HW2 3488   2.210   4.206   0.809
    1SOL     OW 3489   0.975   3.955   2.596
    1SOL    HW1 3490   0.951   3.960   2.688
    1SOL    HW2 3491   1.016   3.869   2.587
    1SOL     OW 3492   1.347   2.658   2.623
    1SOL    HW1 3493   1.283   2.610   2.675
    1SOL    HW2 3494   1.295   2.700   2.554
    1SOL     OW 3495   3.018   1.489   3.095
    1SOL    HW1 3496   2.983   1.495   3.185
    1SOL    HW2 3497   3.092   1.549   3.094
    1SOL     OW 3498   2.476   3.828   0.658
    1SOL    HW1 3499   2.381   3.833   0.650
    1SOL    HW2 3500   2.495   3.734   0.659
    1SOL     OW 3501   2.447   1.751   2.701
    1SOL    HW1 3502   2.539   1.752   2.727
    1SOL    HW2 3503   2.436   1.668   2.655
    1SOL     OW 3504   0.481   0.481   1.368
    1SOL    HW1 3505   0.466   0.539   1.293
    1SOL    HW2 3506   0.575   0.462   1.366
    1SOL     OW 3507   3.526   1.170   1.163
    1SOL    HW1 3508   3.542   1.240   1.099
    1SOL    HW2 3509   3.473   1.212   1.231
    1SOL     OW 3510   2.162   0.494   1.564
    1SOL    HW1 3511   2.191   0.586   1.572
    1SOL    HW2 3512   2.182   0.471   1.473
    1SOL     OW 3513   2.511   2.396   3.277
    1SOL    HW1 3514   2.437   2.455   3.258
    1SOL    HW2 3515   2.562   2.395   3.197
    1SOL     OW 3516   1.884   2.953   2.762
    1SOL    HW1 3517   1.922   2.868   2.786
    1SOL    HW2 3518   1.794   2.948   2.792
    1SOL     OW 3519   1.775   0.415   3.061
    1SOL    HW1 3520   1.797   0.460   3.143
    1SOL    HW2 3521   1.766   0.485   2.997
    1SOL     OW 3522   3.258   0.446   0.507
    1SOL    HW1 3523   3.300   0.390   0.572
    1SOL    HW2 3524   3.256   0.394   0.427
    1SOL     OW 3525   0.327   1.789   0.591
    1SOL    HW1 3526   0.298   1.873   0.555
    1SOL    HW2 3527   0.417   1.779   0.559
    1SOL     OW 3528   0.535   3.492   1.974
    1SOL    HW1 3529   0.476   3.461   1.904
    1SOL    HW2 3530   0.573   3.572   1.938
    1SOL     OW 3531   1.518   3.002   0.208
    1SOL    HW1 3532   1.592   2.980   0.266
    1SOL    HW2 3533   1.482   3.082   0.245
    1SOL     OW 3534   3.509   2.604   1.592
    1SOL    HW1 3535   3.560   2.547   1.650
    1SOL    HW2 3536   3.451   2.544   1.545
    1SOL     OW 3537   2.693   2.036   1.460
    1SOL    HW1 3538   2.634   1.996   1.524
    1SOL    HW2 3539   2.635   2.081   1.398
    1SOL     OW 3540   1.972   3.293   0.889
    1SOL    HW1 3541   1.942   3.376   0.852
    1SOL    HW2 3542   2.032   3.318   0.959
    1SOL     OW 3543   0.059   1.757   2.971
    1SOL    HW1 3544   0.147   1.788   2.990
    1SOL    HW2 3545   0.014   1.832   2.934
    1SOL     OW 3546   1.350   2.407   0.706
    1SOL    HW1 3547   1.257   2.430   0.712
    1SOL    HW2 3548   1.354   2.340   0.638
    1SOL     OW 3549   0.180   3.739   0.340
    1SOL    HW1 3550   0.189   3.713   0.432
    1SOL    HW2 3551   0.227   3.822   0.334
    1SOL     OW 3552   3.440   0.353   0.729
    1SOL    HW1 3553   3.466   0.441   0.754
    1SOL    HW2 3554   3.401   0.316   0.808
    1SOL     OW 3555   1.805   0.464   3.366
    1SOL    HW1 3556   1.821   0.370   3.354
    1SOL    HW2 3557   1.822   0.479   3.459
    1SOL     OW 3558   0.493   2.111   1.859
    1SOL    HW1 3559   0.542   2.188   1.886
    1SOL    HW2 3560   0.555   2.061   1.804
    1SOL     OW 3561   2.473   1.153   1.476
    1SOL    HW1 3562   2.401   1.140   1.539
    1SOL    HW2 3563   2.543   1.097   1.509
    1SOL     OW 3564   0.237   2.465   1.930
    1SOL    HW1 3565   0.292   2.404   1.979
    1SOL    HW2 3566   0.155   2.469   1.978
    1SOL     OW 3567   0.276   1.342   3.125
    1SOL    HW1 3568   0.184   1.318   3.110
    1SOL    HW2 3569   0.324   1.260   3.111
    1SOL     OW 3570   3.015   0.491   0.992
    1SOL    HW1 3571   2.925   0.522   0.981
    1SOL    HW2 3572   3.013   0.400   0.964
    1SOL     OW 3573   2.520   0.473   3.169
    1SOL    HW1 3574   2.436   0.478   3.214
    1SOL    HW2 3575   2.507   0.408   3.100
    1SOL     OW 3576   1.747   2.342   0.775
    1SOL    HW1 3577   1.776   2.280   0.842
    1SOL    HW2 3578   1.821   2.401   0.763
    1SOL     OW 3579   2.797   3.111   0.520
    1SOL    HW1 3580   2.865   3.046   0.541
    1SOL    HW2 3581   2.754   3.076   0.442
    1SOL     OW 3582   0.024   0.545   2.547
    1SOL    HW1 3583  -0.059   0.566   2.590
    1SOL    HW2 3584   0.000   0.491   2.472
    1SOL     OW 3585   2.281   0.341   0.214
    1SOL    HW1 3586   2.282   0.395   0.136
    1SOL    HW2 3587   2.268   0.402   0.286
    1SOL     OW 3588   2.103   1.944   0.939
    1SOL    HW1 3589   2.055   1.907   1.014
    1SOL    HW2 3590   2.130   2.031   0.970
    1SOL     OW 3591   2.449   3.089   2.763
    1SOL    HW1 3592   2.460   3.182   2.780
    1SOL    HW2 3593   2.519   3.067   2.702
    1SOL     OW 3594   3.592   1.293   2.621
    1SOL    HW1 3595   3.677   1.255   2.644
    1SOL    HW2 3596   3.595   1.382   2.656
    1SOL     OW 3597   2.403   2.305   0.715
    1SOL    HW1 3598   2.355   2.309   0.797
    1SOL    HW2 3599   2.444   2.219   0.715
    1SOL     OW 3600   0.096   0.110   0.455
    1SOL    HW1 3601   0.033   0.178   0.432
    1SOL    HW2 3602   0.058   0.029   0.419
    1SOL     OW 3603   1.019   3.236   0.561
    1SOL    HW1 3604   1.071   3.315   0.574
    1SOL    HW2 3605   1.041   3.207   0.472
    1SOL     OW 3606   2.646   2.518   0.958
    1SOL    HW1 3607   2.596   2.439   0.978
    1SOL    HW2 3608   2.580   2.586   0.944
    1SOL     OW 3609   1.722   4.028   2.330
    1SOL    HW1 3610   1.817   4.028   2.320
    1SOL    HW2 3611   1.708   4.007   2.423
    1SOL     OW 3612   2.664   0.661   3.003
    1SOL    HW1 3613   2.623   0.611   3.074
    1SOL    HW2 3614   2.755   0.634   3.005
    1SOL     OW 3615   3.312   2.877   1.373
    1SOL    HW1 3616   3.385   2.930   1.406
    1SOL    HW2 3617   3.348   2.832   1.296
    1SOL     OW 3618   2.963   0.481   2.333
    1SOL    HW1 3619   3.058   0.474   2.329
    1SOL    HW2 3620   2.942   0.473   2.426
    1SOL     OW 3621   1.369   0.001   2.854
    1SOL    HW1 3622   1.350   0.095   2.853
    1SOL    HW2 3623   1.285  -0.040   2.874
    1SOL     OW 3624   2.457   0.977   0.693
    1SOL    HW1 3625   2.386   1.014   0.641
    1SOL    HW2 3626   2.442   1.011   0.782
    1SOL     OW 3627   3.584   0.856   2.664
    1SOL    HW1 3628   3.594   0.879   2.757
    1SOL    HW2 3629   3.505   0.803   2.661
    1SOL     OW 3630   1.886   0.673   1.678
    1SOL    HW1 3631   1.900   0.655   1.771
    1SOL    HW2 3632   1.974   0.689   1.643
    1SOL     OW 3633   2.345   3.729   2.539
    1SOL    HW1 3634   2.415   3.706   2.600
    1SOL    HW2 3635   2.307   3.645   2.514
    1SOL     OW 3636   2.013   3.185   2.839
    1SOL    HW1 3637   1.975   3.107   2.799
    1SOL    HW2 3638   2.041   3.157   2.926
    1SOL     OW 3639   1.897   1.578   0.657
    1SOL    HW1 3640   1.955   1.503   0.643
    1SOL    HW2 3641   1.955   1.648   0.687
    1SOL     OW 3642   1.415   0.844   2.594
    1SOL    HW1 3643   1.438   0.935   2.572
    1SOL    HW2 3644   1.363   0.851   2.674
    1SOL     OW 3645   0.071   3.864   2.043
    1SOL    HW1 3646   0.153   3.820   2.020
    1SOL    HW2 3647   0.093   3.957   2.048
    1SOL     OW 3648   0.421   4.119   1.268
    1SOL    HW1 3649   0.460   4.109   1.355
    1SOL    HW2 3650   0.370   4.039   1.256
    1SOL     OW 3651   2.482   0.724   2.233
    1SOL    HW1 3652   2.494   0.706   2.326
    1SOL    HW2 3653   2.517   0.813   2.221
    1SOL     OW 3654   2.797   0.697   1.731
    1SOL    HW1 3655   2.861   0.723   1.664
    1SOL    HW2 3656   2.850   0.681   1.809
    1SOL     OW 3657   1.682   2.435   2.912
    1SOL    HW1 3658   1.749   2.373   2.942
    1SOL    HW2 3659   1.610   2.423   2.974
    1SOL     OW 3660   3.204   2.470   1.711
    1SOL    HW1 3661   3.133   2.458   1.774
    1SOL    HW2 3662   3.207   2.387   1.663
    1SOL     OW 3663   1.532   3.597   3.366
    1SOL    HW1 3664   1.471   3.581   3.294
    1SOL    HW2 3665   1.596   3.658   3.330
    1SOL     OW 3666   0.528   1.790   1.470
    1SOL    HW1 3667   0.518   1.879   1.436
    1SOL    HW2 3668   0.560   1.802   1.560
    1SOL     OW 3669   0.650   2.634   1.529
    1SOL    HW1 3670   0.643   2.729   1.524
    1SOL    HW2 3671   0.742   2.616   1.512
    1SOL     OW 3672   2.503   1.912   1.629
    1SOL    HW1 3673   2.458   1.953   1.703
    1SOL    HW2 3674   2.433   1.879   1.573
    1SOL     OW 3675   3.136   3.087   1.157
    1SOL    HW1 3676   3.114   2.994   1.164
    1SOL    HW2 3677   3.056   3.128   1.127
    1SOL     OW 3678   1.663   2.124   0.518
    1SOL    HW1 3679   1.714   2.172   0.582
    1SOL    HW2 3680   1.696   2.034   0.524
    1SOL     OW 3681   3.172   1.815   2.827
    1SOL    HW1 3682   3.131   1.898   2.800
    1SOL    HW2 3683   3.261   1.821   2.794
    1SOL     OW 3684   0.620   2.649   1.892
    1SOL    HW1 3685   0.579   2.702   1.824
    1SOL    HW2 3686   0.709   2.684   1.898
    1SOL     OW 3687   2.852   0.551   3.354
    1SOL    HW1 3688   2.835   0.645   3.344
    1SOL    HW2 3689   2.773   0.516   3.395
    1SOL     OW 3690   2.508   0.433   2.555
    1SOL    HW1 3691   2.493   0.369   2.624
    1SOL    HW2 3692   2.490   0.386   2.474
    1SOL     OW 3693   1.336   3.902   1.270
    1SOL    HW1 3694   1.422   3.888   1.311
    1SOL    HW2 3695   1.281   3.936   1.341
    1SOL     OW 3696   2.819   2.350   2.636
    1SOL    HW1 3697   2.836   2.262   2.670
    1SOL    HW2 3698   2.859   2.350   2.549
    1SOL     OW 3699   2.270   3.569   1.644
    1SOL    HW1 3700   2.269   3.531   1.556
    1SOL    HW2 3701   2.355   3.612   1.650
    1SOL     OW 3702   3.438   1.422   3.212
    1SOL    HW1 3703   3.417   1.465   3.130
    1SOL    HW2 3704   3.398   1.335   3.205
    1SOL     OW 3705   1.279   3.852   0.801
    1SOL    HW1 3706   1.311   3.932   0.760
    1SOL    HW2 3707   1.219   3.815   0.737
    1SOL     OW 3708   0.196   2.688   1.573
    1SOL    HW1 3709   0.130   2.664   1.508
    1SOL    HW2 3710   0.195   2.784   1.573
    1SOL     OW 3711   2.541   4.083   3.092
    1SOL    HW1 3712   2.621   4.134   3.106
    1SOL    HW2 3713   2.502   4.075   3.179
    1SOL     OW 3714   2.880   3.423   2.773
    1SOL    HW1 3715   2.920   3.506   2.747
    1SOL    HW2 3716   2.901   3.363   2.701
    1SOL     OW 3717   2.313   1.251   2.743
    1SOL    HW1 3718   2.271   1.252   2.657
    1SOL    HW2 3719   2.254   1.302   2.799
    1SOL     OW 3720   2.109   1.742   0.736
    1SOL    HW1 3721   2.103   1.805   0.807
    1SOL    HW2 3722   2.194   1.757   0.697
    1SOL     OW 3723   1.652   1.520   1.888
    1SOL    HW1 3724   1.693   1.467   1.820
    1SOL    HW2 3725   1.670   1.473   1.969
    1SOL     OW 3726   1.182   1.569   2.541
    1SOL    HW1 3727   1.173   1.525   2.456
    1SOL    HW2 3728   1.276   1.581   2.553
    1SOL     OW 3729   0.491   0.726   2.093
    1SOL    HW1 3730   0.545   0.792   2.135
    1SOL    HW2 3731   0.417   0.775   2.057
    1SOL     OW 3732   0.758   0.311   0.622
    1SOL    HW1 3733   0.803   0.285   0.541
    1SOL    HW2 3734   0.770   0.237   0.681
    1SOL     OW 3735   1.989   2.689   2.825
    1SOL    HW1 3736   1.922   2.627   2.797
    1SOL    HW2 3737   1.993   2.678   2.920
    1SOL     OW 3738   2.883   1.904   3.305
    1SOL    HW1 3739   2.824   1.947   3.366
    1SOL    HW2 3740   2.834   1.829   3.272
    1SOL     OW 3741   0.199   2.592   0.366
    1SOL    HW1 3742   0.242   2.597   0.281
    1SOL    HW2 3743   0.133   2.661   0.363
    1SOL     OW 3744   1.450   1.593   2.491
    1SOL    HW1 3745   1.442   1.678   2.447
    1SOL    HW2 3746   1.514   1.608   2.561
    1SOL     OW 3747   0.092   3.290   3.256
    1SOL    HW1 3748   0.170   3.236   3.259
    1SOL    HW2 3749   0.022   3.234   3.290
    1SOL     OW 3750   2.881   3.390   0.461
    1SOL    HW1 3751   2.856   3.300   0.483
    1SOL    HW2 3752   2.951   3.378   0.395
    1SOL     OW 3753   2.466   3.752   0.975
    1SOL    HW1 3754   2.457   3.737   1.069
    1SOL    HW2 3755   2.538   3.695   0.948
    1SOL     OW 3756   2.947   4.162   0.713
    1SOL    HW1 3757   2.977   4.244   0.751
    1SOL    HW2 3758   2.975   4.095   0.775
    1SOL     OW 3759   3.275   3.146   1.778
    1SOL    HW1 3760   3.194   3.190   1.752
    1SOL    HW2 3761   3.247   3.060   1.809
    1SOL     OW 3762   1.848   3.512   0.795
    1SOL    HW1 3763   1.875   3.583   0.852
    1SOL    HW2 3764   1.828   3.554   0.711
    1SOL     OW 3765   2.455   2.888   1.308
    1SOL    HW1 3766   2.483   2.970   1.267
    1SOL    HW2 3767   2.529   2.862   1.363
    1SOL     OW 3768   1.391   2.024   0.813
    1SOL    HW1 3769   1.365   2.108   0.774
    1SOL    HW2 3770   1.320   2.003   0.874
    1SOL     OW 3771   2.972   3.918   3.366
    1SOL    HW1 3772   3.019   3.865   3.302
    1SOL    HW2 3773   2.996   3.881   3.451
    1SOL     OW 3774   0.106   1.499   2.077
    1SOL    HW1 3775   0.065   1.424   2.034
    1SOL    HW2 3776   0.140   1.464   2.159
    1SOL     OW 3777   1.760   2.521   2.328
    1SOL    HW1 3778   1.741   2.543   2.237
    1SOL    HW2 3779   1.818   2.590   2.359
    1SOL     OW 3780   2.966   2.015   1.637
    1SOL    HW1 3781   2.970   2.012   1.733
    1SOL    HW2 3782   2.892   2.073   1.618
    1SOL     OW 3783   2.306   1.567   2.299
    1SOL    HW1 3784   2.397   1.582   2.327
    1SOL    HW2 3785   2.303   1.474   2.276
    1SOL     OW 3786   2.402   4.041   3.334
    1SOL    HW1 3787   2.415   3.950   3.359
    1SOL    HW2 3788   2.308   4.056   3.347
    1SOL     OW 3789   2.997   2.356   1.843
    1SOL    HW1 3790   2.995   2.263   1.869
    1SOL    HW2 3791   2.918   2.368   1.791
    1SOL     OW 3792   1.080   4.046   3.205
    1SOL    HW1 3793   1.064   4.055   3.299
    1SOL    HW2 3794   1.008   3.991   3.174
    1SOL     OW 3795   3.119   3.159   0.033
    1SOL    HW1 3796   3.161   3.238  -0.001
    1SOL    HW2 3797   3.075   3.121  -0.043
    1SOL     OW 3798   3.145   3.383   0.922
    1SOL    HW1 3799   3.152   3.326   0.845
    1SOL    HW2 3800   3.221   3.441   0.916
    1SOL     OW 3801   1.222   1.135   0.333
    1SOL    HW1 3802   1.183   1.070   0.274
    1SOL    HW2 3803   1.166   1.212   0.324
    1SOL     OW 3804   0.677   1.982   1.664
    1SOL    HW1 3805   0.763   2.015   1.637
    1SOL    HW2 3806   0.616   2.020   1.601
    1SOL     OW 3807   1.198   1.076   1.497
    1SOL    HW1 3808   1.165   1.122   1.574
    1SOL    HW2 3809   1.123   1.074   1.437
    1SOL     OW 3810   1.042   1.357   1.266
    1SOL    HW1 3811   1.089   1.418   1.208
    1SOL    HW2 3812   1.092   1.360   1.348
    1SOL     OW 3813   0.270   0.929   3.325
    1SOL    HW1 3814   0.269   0.839   3.357
    1SOL    HW2 3815   0.241   0.981   3.399
    1SOL     OW 3816   2.038   2.885   3.273
    1SOL    HW1 3817   1.970   2.854   3.332
    1SOL    HW2 3818   2.100   2.932   3.329
    1SOL     OW 3819   3.538   3.522   0.209
    1SOL    HW1 3820   3.593   3.535   0.132
    1SOL    HW2 3821   3.484   3.600   0.214
    1SOL     OW 3822   1.605   3.418   0.901
    1SOL    HW1 3823   1.615   3.427   0.996
    1SOL    HW2 3824   1.693   3.433   0.866
    1SOL     OW 3825   2.281   1.149   1.662
    1SOL    HW1 3826   2.254   1.087   1.729
    1SOL    HW2 3827   2.204   1.205   1.648
    1SOL     OW 3828   1.188   1.643   0.446
    1SOL    HW1 3829   1.112   1.610   0.493
    1SOL    HW2 3830   1.216   1.719   0.497
    1SOL     OW 3831   1.506   4.128   0.186
    1SOL    HW1 3832   1.596   4.096   0.193
    1SOL    HW2 3833   1.459   4.059   0.139
    1SOL     OW 3834   3.343   0.187   2.678
    1SOL    HW1 3835   3.433   0.221   2.675
    1SOL    HW2 3836   3.288   0.265   2.670
    1SOL     OW 3837   1.269   2.083   2.926
    1SOL    HW1 3838   1.354   2.074   2.881
    1SOL    HW2 3839   1.221   2.147   2.873
    1SOL     OW 3840   0.593   1.677   0.496
    1SOL    HW1 3841   0.585   1.590   0.536
    1SOL    HW2 3842   0.686   1.685   0.474
    1SOL     OW 3843   1.768   3.230   3.078
    1SOL    HW1 3844   1.843   3.170   3.082
    1SOL    HW2 3845   1.807   3.315   3.057
    1SOL     OW 3846   1.186   2.661   1.818
    1SOL    HW1 3847   1.276   2.636   1.799
    1SOL    HW2 3848   1.170   2.738   1.763
    1SOL     OW 3849   2.198   1.053   3.204
    1SOL    HW1 3850   2.172   1.111   3.277
    1SOL    HW2 3851   2.254   1.108   3.149
    1SOL     OW 3852   0.113   2.871   0.231
    1SOL    HW1 3853   0.105   2.960   0.264
    1SOL    HW2 3854   0.023   2.846   0.208
    1SOL     OW 3855   0.498   0.841   2.622
    1SOL    HW1 3856   0.411   0.803   2.612
    1SOL    HW2 3857   0.489   0.932   2.596
    1SOL     OW 3858   1.572   2.229   1.479
    1SOL    HW1 3859   1.639   2.280   1.525
    1SOL    HW2 3860   1.620   2.185   1.408
    1SOL     OW 3861   1.683   2.273   0.165
    1SOL    HW1 3862   1.639   2.188   0.155
    1SOL    HW2 3863   1.621   2.326   0.216
    1SOL     OW 3864   1.893   3.216   2.568
    1SOL    HW1 3865   1.962   3.157   2.598
    1SOL    HW2 3866   1.831   3.158   2.523
    1SOL     OW 3867   0.217   1.389   0.274
    1SOL    HW1 3868   0.142   1.449   0.281
    1SOL    HW2 3869   0.263   1.417   0.194
    1SOL     OW 3870   0.947   2.839   2.133
    1SOL    HW1 3871   0.859   2.866   2.158
    1SOL    HW2 3872   0.998   2.920   2.136
    1SOL     OW 3873   1.651   0.389   1.262
    1SOL    HW1 3874   1.617   0.325   1.199
    1SOL    HW2 3875   1.585   0.391   1.331
    1SOL     OW 3876   1.192   2.703   2.110
    1SOL    HW1 3877   1.195   2.688   2.015
    1SOL    HW2 3878   1.100   2.725   2.128
    1SOL     OW 3879   1.462   1.795   2.244
    1SOL    HW1 3880   1.426   1.784   2.156
    1SOL    HW2 3881   1.554   1.771   2.234
    1SOL     OW 3882   2.601   0.558   0.278
    1SOL    HW1 3883   2.519   0.573   0.325
    1SOL    HW2 3884   2.633   0.646   0.259
    1SOL     OW 3885   3.102   2.563   0.761
    1SOL    HW1 3886   3.168   2.494   0.759
    1SOL    HW2 3887   3.021   2.519   0.736
    1SOL     OW 3888   1.082   0.389   0.657
    1SOL    HW1 3889   1.088   0.303   0.700
    1SOL    HW2 3890   1.170   0.405   0.623
    1SOL     OW 3891   3.568   1.293   0.565
    1SOL    HW1 3892   3.486   1.321   0.606
    1SOL    HW2 3893   3.633   1.356   0.597
    1SOL     OW 3894   2.304   0.363   3.297
    1SOL    HW1 3895   2.219   0.324   3.276
    1SOL    HW2 3896   2.284   0.429   3.364
    1SOL     OW 3897   2.792   2.129   1.014
    1SOL    HW1 3898   2.716   2.151   1.067
    1SOL    HW2 3899   2.866   2.131   1.075
    1SOL     OW 3900   1.770   3.505   2.990
    1SOL    HW1 3901   1.799   3.505   2.899
    1SOL    HW2 3902   1.738   3.594   3.005
    1SOL     OW 3903   3.170   3.202   0.728
    1SOL    HW1 3904   3.229   3.241   0.663
    1SOL    HW2 3905   3.126   3.131   0.681
    1SOL     OW 3906   1.568   2.321   1.167
    1SOL    HW1 3907   1.577   2.413   1.191
    1SOL    HW2 3908   1.483   2.295   1.202
    1SOL     OW 3909   2.928   3.293   2.545
    1SOL    HW1 3910   2.865   3.349   2.499
    1SOL    HW2 3911   2.958   3.232   2.478
    1SOL     OW 3912   3.074   2.832   1.030
    1SOL    HW1 3913   2.984   2.800   1.022
    1SOL    HW2 3914   3.091   2.877   0.947
    1SOL     OW 3915   0.911   2.790   0.087
    1SOL    HW1 3916   0.834   2.738   0.064
    1SOL    HW2 3917   0.898   2.812   0.180
    1SOL     OW 3918   2.740   3.844   0.664
    1SOL    HW1 3919   2.762   3.928   0.624
    1SOL    HW2 3920   2.645   3.835   0.652
    1SOL     OW 3921   2.617   1.906   2.947
    1SOL    HW1 3922   2.607   1.811   2.959
    1SOL    HW2 3923   2.706   1.924   2.974
    1SOL     OW 3924   0.081   3.381   0.408
    1SOL    HW1 3925   0.102   3.451   0.470
    1SOL    HW2 3926   0.046   3.426   0.332
    1SOL     OW 3927   1.272   0.308   2.033
    1SOL    HW1 3928   1.306   0.236   1.980
    1SOL    HW2 3929   1.320   0.385   2.002
    1SOL     OW 3930   2.210   1.802   0.123
    1SOL    HW1 3931   2.266   1.730   0.095
    1SOL    HW2 3932   2.131   1.793   0.070
    1SOL     OW 3933   2.198   4.173   1.673
    1SOL    HW1 3934   2.232   4.093   1.712
    1SOL    HW2 3935   2.200   4.156   1.578
    1SOL     OW 3936   1.093   1.856   2.988
    1SOL    HW1 3937   1.086   1.827   2.897
    1SOL    HW2 3938   1.136   1.941   2.982
    1SOL     OW 3939   3.022   0.236   2.746
    1SOL    HW1 3940   2.985   0.147   2.747
    1SOL    HW2 3941   2.947   0.292   2.725
    1SOL     OW 3942   2.896   3.595   0.641
    1SOL    HW1 3943   2.820   3.652   0.629
    1SOL    HW2 3944   2.874   3.515   0.592
    1SOL     OW 3945   2.759   1.541   2.413
    1SOL    HW1 3946   2.680   1.487   2.420
    1SOL    HW2 3947   2.831   1.478   2.413
    1SOL     OW 3948   2.566   1.820   0.133
    1SOL    HW1 3949   2.596   1.805   0.043
    1SOL    HW2 3950   2.473   1.797   0.130
    1SOL     OW 3951   0.626   1.327   0.332
    1SOL    HW1 3952   0.550   1.270   0.323
    1SOL    HW2 3953   0.613   1.370   0.417
    1SOL     OW 3954   1.688   0.472   2.432
    1SOL    HW1 3955   1.762   0.526   2.403
    1SOL    HW2 3956   1.627   0.474   2.358
    1SOL     OW 3957   3.296   1.392   0.692
    1SOL    HW1 3958   3.295   1.486   0.673
    1SOL    HW2 3959   3.233   1.381   0.763
    1SOL     OW 3960   1.652   2.769   3.036
    1SOL    HW1 3961   1.581   2.710   3.062
    1SOL    HW2 3962   1.732   2.721   3.057
    1SOL     OW 3963   2.476   0.245   2.753
    1SOL    HW1 3964   2.407   0.278   2.810
    1SOL    HW2 3965   2.450   0.155   2.733
    1SOL     OW 3966   0.678   3.892   0.231
    1SOL    HW1 3967   0.716   3.909   0.144
    1SOL    HW2 3968   0.596   3.846   0.213
    1SOL     OW 3969   3.626   0.629   2.114
    1SOL    HW1 3970   3.620   0.537   2.138
    1SOL    HW2 3971   3.719   0.649   2.116
    1SOL     OW 3972   3.456   0.267   0.107
    1SOL    HW1 3973   3.419   0.356   0.100
    1SOL    HW2 3974   3.432   0.239   0.195
    1SOL     OW 3975   2.244   1.856   1.606
    1SOL    HW1 3976   2.199   1.779   1.642
    1SOL    HW2 3977   2.233   1.847   1.511
    1SOL     OW 3978   0.039   2.384   1.148
    1SOL    HW1 3979   0.100   2.379   1.075
    1SOL    HW2 3980  -0.014   2.462   1.130
    1SOL     OW 3981   0.149   2.802   2.111
    1SOL    HW1 3982   0.188   2.801   2.023
    1SOL    HW2 3983   0.057   2.781   2.096
    1SOL     OW 3984   1.169   0.381   3.314
    1SOL    HW1 3985   1.198   0.300   3.271
    1SOL    HW2 3986   1.139   0.436   3.242
    1SOL     OW 3987   0.628   3.615   2.570
    1SOL    HW1 3988   0.683   3.592   2.645
    1SOL    HW2 3989   0.657   3.702   2.544
    1SOL     OW 3990   1.488   0.094   1.319
    1SOL    HW1 3991   1.475   0.024   1.382
    1SOL    HW2 3992   1.517   0.168   1.371
    1SOL     OW 3993   1.067   2.459   0.011
    1SOL    HW1 3994   0.974   2.460   0.032
    1SOL    HW2 3995   1.106   2.524   0.070
    1SOL     OW 3996   1.942   2.761   2.321
    1SOL    HW1 3997   2.000   2.836   2.333
    1SOL    HW2 3998   1.907   2.771   2.233
    1SOL     OW 3999   1.106   2.579   2.754
    1SOL    HW1 4000   1.030   2.613   2.800
    1SOL    HW2 4001   1.128   2.498   2.801
    1SOL     OW 4002   2.195   2.819   0.718
    1SOL    HW1 4003   2.255   2.893   0.709
    1SOL    HW2 4004   2.252   2.742   0.710
    1SOL     OW 4005   0.668   1.566   2.716
    1SOL    HW1 4006   0.590   1.575   2.662
    1SOL    HW2 4007   0.634   1.546   2.804
    1SOL     OW 4008   0.728   2.379   2.586
    1SOL    HW1 4009   0.818   2.408   2.575
    1SOL    HW2 4010   0.692   2.377   2.498
    1SOL     OW 4011   2.065   1.333   1.966
    1SOL    HW1 4012   2.077   1.245   2.000
    1SOL    HW2 4013   2.148   1.378   1.983
    1SOL     OW 4014  -0.013   1.601   2.421
    1SOL    HW1 4015  -0.069   1.538   2.377
    1SOL    HW2 4016  -0.012   1.677   2.363
    1SOL     OW 4017   1.050   4.054   1.390
    1SOL    HW1 4018   0.962   4.055   1.351
    1SOL    HW2 4019   1.066   3.962   1.411
    1SOL     OW 4020   3.222   0.279   0.298
    1SOL    HW1 4021   3.131   0.290   0.272
    1SOL    HW2 4022   3.236   0.184   0.298
    1SOL     OW 4023   1.238   1.349   1.016
    1SOL    HW1 4024   1.184   1.310   0.947
    1SOL    HW2 4025   1.292   1.277   1.047
    1SOL     OW 4026   1.070   3.659   2.668
    1SOL    HW1 4027   1.090   3.680   2.577
    1SOL    HW2 4028   1.120   3.579   2.686
    1SOL     OW 4029   0.990   2.925   0.376
    1SOL    HW1 4030   1.079   2.892   0.382
    1SOL    HW2 4031   0.968   2.950   0.466
    1SOL     OW 4032   0.430   3.800   0.905
    1SOL    HW1 4033   0.463   3.882   0.870
    1SOL    HW2 4034   0.469   3.793   0.992
    1SOL     OW 4035   1.755   3.749   1.039
    1SOL    HW1 4036   1.715   3.833   1.061
    1SOL    HW2 4037   1.735   3.692   1.113
    1SOL     OW 4038   2.706   0.140   1.064
    1SOL    HW1 4039   2.796   0.136   1.097
    1SOL    HW2 4040   2.687   0.051   1.036
    1SOL     OW 4041   2.488   3.743   1.747
    1SOL    HW1 4042   2.538   3.820   1.775
    1SOL    HW2 4043   2.524   3.672   1.799
    1SOL     OW 4044   3.087   0.691   0.386
    1SOL    HW1 4045   3.103   0.675   0.480
    1SOL    HW2 4046   3.174   0.710   0.350
    1SOL     OW 4047   0.338   0.368   1.818
    1SOL    HW1 4048   0.406   0.375   1.750
    1SOL    HW2 4049   0.350   0.280   1.855
    1SOL     OW 4050   1.431   3.307   0.163
    1SOL    HW1 4051   1.358   3.345   0.211
    1SOL    HW2 4052   1.395   3.285   0.077
    1SOL     OW 4053   0.311   2.062   2.386
    1SOL    HW1 4054   0.269   2.129   2.439
    1SOL    HW2 4055   0.365   2.013   2.448
    1SOL     OW 4056   3.163   2.193   1.650
    1SOL    HW1 4057   3.114   2.113   1.631
    1SOL    HW2 4058   3.251   2.162   1.671
    1SOL     OW 4059   0.376   2.080   0.067
    1SOL    HW1 4060   0.372   2.094  -0.027
    1SOL    HW2 4061   0.416   1.994   0.077
    1SOL     OW 4062   2.744   1.889   0.543
    1SOL    HW1 4063   2.717   1.953   0.478
    1SOL    HW2 4064   2.763   1.940   0.621
    1SOL     OW 4065   0.106   1.173   3.320
    1SOL    HW1 4066   0.040   1.228   3.279
    1SOL    HW2 4067   0.177   1.169   3.257
    1SOL     OW 4068   2.739   1.232   2.241
    1SOL    HW1 4069   2.763   1.224   2.149
    1SOL    HW2 4070   2.823   1.243   2.286
    1SOL     OW 4071   0.122   0.512   3.298
    1SOL    HW1 4072   0.141   0.420   3.283
    1SOL    HW2 4073   0.205   0.550   3.327
    1SOL     OW 4074   0.646  -0.023   3.232
    1SOL    HW1 4075   0.730  -0.060   3.258
    1SOL    HW2 4076   0.648   0.066   3.265
    1SOL     OW 4077   1.034   0.860   2.605
    1SOL    HW1 4078   1.003   0.771   2.587
    1SOL    HW2 4079   0.955   0.914   2.598
    1SOL     OW 4080   0.098   0.845   0.055
    1SOL    HW1 4081   0.145   0.822   0.136
    1SOL    HW2 4082   0.093   0.941   0.057
    1SOL     OW 4083   3.246   3.868   0.451
    1SOL    HW1 4084   3.165   3.861   0.502
    1SOL    HW2 4085   3.297   3.935   0.497
    1SOL     OW 4086   0.785   3.048   2.757
    1SOL    HW1 4087   0.875   3.057   2.726
    1SOL    HW2 4088   0.731   3.084   2.687
    1SOL     OW 4089   2.246   2.285   3.156
    1SOL    HW1 4090   2.172   2.345   3.147
    1SOL    HW2 4091   2.291   2.288   3.072
    1SOL     OW 4092   1.218   3.773   1.754
    1SOL    HW1 4093   1.204   3.859   1.792
    1SOL    HW2 4094   1.291   3.736   1.804
    1SOL     OW 4095   2.955   2.997   3.149
    1SOL    HW1 4096   3.043   3.016   3.183
    1SOL    HW2 4097   2.967   2.919   3.095
    1SOL     OW 4098   0.184   0.217   2.781
    1SOL    HW1 4099   0.142   0.133   2.766
    1SOL    HW2 4100   0.144   0.276   2.716
    1SOL     OW 4101   0.771   1.823   2.637
    1SOL    HW1 4102   0.813   1.836   2.552
    1SOL    HW2 4103   0.747   1.731   2.638
    1SOL     OW 4104   3.183   2.165   2.633
    1SOL    HW1 4105   3.116   2.097   2.638
    1SOL    HW2 4106   3.171   2.205   2.546
    1SOL     OW 4107   1.774   3.054   0.850
    1SOL    HW1 4108   1.861   3.093   0.859
    1SOL    HW2 4109   1.743   3.087   0.765
    1SOL     OW 4110   1.972   3.963   2.913
    1SOL    HW1 4111   2.027   3.912   2.854
    1SOL    HW2 4112   1.965   4.049   2.871
    1SOL     OW 4113   1.595   0.337   2.823
    1SOL    HW1 4114   1.600   0.398   2.749
    1SOL    HW2 4115   1.571   0.392   2.898
    1SOL     OW 4116   2.671   2.549   1.416
    1SOL    HW1 4117   2.665   2.644   1.403
    1SOL    HW2 4118   2.582   2.517   1.403
    1SOL     OW 4119   3.291   2.433   1.045
    1SOL    HW1 4120   3.278   2.455   0.953
    1SOL    HW2 4121   3.218   2.474   1.090
    1SOL     OW 4122   1.356   1.336   3.400
    1SOL    HW1 4123   1.332   1.392   3.326
    1SOL    HW2 4124   1.419   1.274   3.364
    1SOL     OW 4125   3.554   1.244   0.295
    1SOL    HW1 4126   3.591   1.321   0.251
    1SOL    HW2 4127   3.566   1.262   0.388
    1SOL     OW 4128   3.020   3.814   2.184
    1SOL    HW1 4129   2.997   3.852   2.099
    1SOL    HW2 4130   3.016   3.887   2.245
    1SOL     OW 4131   2.585   3.094   1.192
    1SOL    HW1 4132   2.578   3.087   1.097
    1SOL    HW2 4133   2.677   3.074   1.210
    1SOL     OW 4134   3.169   3.309   3.177
    1SOL    HW1 4135   3.238   3.375   3.186
    1SOL    HW2 4136   3.212   3.226   3.199
    1SOL     OW 4137   2.583   0.269   1.514
    1SOL    HW1 4138   2.627   0.203   1.568
    1SOL    HW2 4139   2.647   0.290   1.446
    1SOL     OW 4140   0.868   1.689   0.553
    1SOL    HW1 4141   0.903   1.778   0.552
    1SOL    HW2 4142   0.839   1.676   0.643
    1SOL     OW 4143   2.198   3.505   3.253
    1SOL    HW1 4144   2.129   3.510   3.188
    1SOL    HW2 4145   2.196   3.591   3.296
    1SOL     OW 4146   3.562   4.180   2.976
    1SOL    HW1 4147   3.474   4.161   2.943
    1SOL    HW2 4148   3.568   4.130   3.057
    1SOL     OW 4149   3.008   4.175   3.217
    1SOL    HW1 4150   3.031   4.113   3.285
    1SOL    HW2 4151   2.919   4.151   3.192
    1SOL     OW 4152   1.042   3.323   1.236
    1SOL    HW1 4153   1.124   3.277   1.256
    1SOL    HW2 4154   1.071   3.403   1.192
    1SOL     OW 4155   3.479   1.862   2.796
    1SOL    HW1 4156   3.462   1.953   2.771
    1SOL    HW2 4157   3.513   1.822   2.716
    1SOL     OW 4158   3.346   1.151   2.662
    1SOL    HW1 4159   3.439   1.174   2.657
    1SOL    HW2 4160   3.327   1.111   2.577
    1SOL     OW 4161   3.546   3.585   0.992
    1SOL    HW1 4162   3.601   3.507   0.995
    1SOL    HW2 4163   3.522   3.600   1.084
    1SOL     OW 4164   3.244   0.789   2.417
    1SOL    HW1 4165   3.309   0.803   2.348
    1SOL    HW2 4166   3.234   0.694   2.421
    1SOL     OW 4167   1.967   2.398   1.036
    1SOL    HW1 4168   1.878   2.363   1.039
    1SOL    HW2 4169   2.003   2.366   0.954
    1SOL     OW 4170   2.098   2.603   2.138
    1SOL    HW1 4171   2.154   2.636   2.208
    1SOL    HW2 4172   2.048   2.532   2.178
    1SOL     OW 4173   3.112   3.279   1.528
    1SOL    HW1 4174   3.079   3.356   1.575
    1SOL    HW2 4175   3.056   3.273   1.451
    1SOL     OW 4176   0.507   3.520   2.355
    1SOL    HW1 4177   0.540   3.547   2.441
    1SOL    HW2 4178   0.429   3.468   2.376
    1SOL     OW 4179   2.056   2.303   1.737
    1SOL    HW1 4180   2.092   2.219   1.768
    1SOL    HW2 4181   2.103   2.369   1.788
    1SOL     OW 4182   2.713   4.087   0.904
    1SOL    HW1 4183   2.755   4.041   0.831
    1SOL    HW2 4184   2.630   4.040   0.917
    1SOL     OW 4185   2.231   0.484   2.474
    1SOL    HW1 4186   2.290   0.512   2.543
    1SOL    HW2 4187   2.260   0.532   2.396
    1SOL     OW 4188   3.043   0.922   2.567
    1SOL    HW1 4189   3.088   0.851   2.521
    1SOL    HW2 4190   3.104   0.950   2.635
    1SOL     OW 4191   0.754   2.538   1.202
    1SOL    HW1 4192   0.742   2.628   1.233
    1SOL    HW2 4193   0.677   2.492   1.235
    1SOL     OW 4194   1.781   3.582   2.655
    1SOL    HW1 4195   1.726   3.616   2.726
    1SOL    HW2 4196   1.845   3.651   2.638
    1SOL     OW 4197   2.667   3.401   2.466
    1SOL    HW1 4198   2.634   3.484   2.431
    1SOL    HW2 4199   2.636   3.399   2.557
    1SOL     OW 4200   2.010   3.943   0.660
    1SOL    HW1 4201   1.976   3.991   0.736
    1SOL    HW2 4202   1.941   3.948   0.595
    1SOL     OW 4203   0.225   2.521   0.027
    1SOL    HW1 4204   0.207   2.444   0.081
    1SOL    HW2 4205   0.160   2.517  -0.043
    1SOL     OW 4206   1.935   2.745   1.841
    1SOL    HW1 4207   1.911   2.831   1.808
    1SOL    HW2 4208   2.029   2.751   1.859
    1SOL     OW 4209   1.322   3.111   3.134
    1SOL    HW1 4210   1.301   3.105   3.041
    1SOL    HW2 4211   1.249   3.162   3.171
    1SOL     OW 4212   2.910   0.952   2.955
    1SOL    HW1 4213   2.922   1.047   2.958
    1SOL    HW2 4214   2.836   0.939   2.895
    1SOL     OW 4215   1.767   4.049   0.198
    1SOL    HW1 4216   1.774   4.005   0.114
    1SOL    HW2 4217   1.853   4.088   0.212
    1SOL     OW 4218   0.956   0.206   3.067
    1SOL    HW1 4219   0.913   0.249   3.141
    1SOL    HW2 4220   1.048   0.199   3.094
    1SOL     OW 4221   2.171   4.147   0.460
    1SOL    HW1 4222   2.224   4.078   0.421
    1SOL    HW2 4223   2.195   4.147   0.552
    1SOL     OW 4224   3.614   2.163   3.079
    1SOL    HW1 4225   3.637   2.100   3.011
    1SOL    HW2 4226   3.569   2.111   3.146
    1SOL     OW 4227   3.408   0.092   0.987
    1SOL    HW1 4228   3.446   0.059   1.069
    1SOL    HW2 4229   3.447   0.178   0.975
    1SOL     OW 4230   2.965   1.641   1.541
    1SOL    HW1 4231   3.011   1.608   1.618
    1SOL    HW2 4232   2.914   1.566   1.510
    1SOL     OW 4233   3.470   3.902   0.935
    1SOL    HW1 4234   3.430   3.847   0.868
    1SOL    HW2 4235   3.555   3.863   0.951
    1SOL     OW 4236   1.634   3.813   1.964
    1SOL    HW1 4237   1.685   3.889   1.993
    1SOL    HW2 4238   1.700   3.751   1.932
    1SOL     OW 4239   1.258   2.021   0.379
    1SOL    HW1 4240   1.246   1.934   0.340
    1SOL    HW2 4241   1.181   2.071   0.349
    1SOL     OW 4242   1.058   0.732   0.278
    1SOL    HW1 4243   1.051   0.658   0.338
    1SOL    HW2 4244   1.066   0.693   0.192
    1SOL     OW 4245   2.622   3.236   0.662
    1SOL    HW1 4246   2.696   3.216   0.606
    1SOL    HW2 4247   2.545   3.215   0.609
    1SOL     OW 4248   3.097   2.040   0.764
    1SOL    HW1 4249   3.136   1.962   0.724
    1SOL    HW2 4250   3.140   2.049   0.849
    1SOL     OW 4251   0.666   2.151   1.279
    1SOL    HW1 4252   0.741   2.092   1.280
    1SOL    HW2 4253   0.598   2.103   1.233
    1SOL     OW 4254   2.973   0.932   0.735
    1SOL    HW1 4255   2.974   0.840   0.761
    1SOL    HW2 4256   2.938   0.931   0.646
    1SOL     OW 4257   3.395   0.987   0.824
    1SOL    HW1 4258   3.332   1.057   0.805
    1SOL    HW2 4259   3.458   0.990   0.751
    1SOL     OW 4260   2.849   3.549   1.542
    1SOL    HW1 4261   2.927   3.588   1.579
    1SOL    HW2 4262   2.799   3.623   1.508
    1SOL     OW 4263   3.641   0.449   1.091
    1SOL    HW1 4264   3.565   0.506   1.096
    1SOL    HW2 4265   3.675   0.445   1.181
    1SOL     OW 4266   3.514   1.654   2.027
    1SOL    HW1 4267   3.604   1.621   2.034
    1SOL    HW2 4268   3.511   1.729   2.087
    1SOL     OW 4269   2.837   2.024   0.764
    1SOL    HW1 4270   2.930   2.024   0.741
    1SOL    HW2 4271   2.833   2.070   0.848
    1SOL     OW 4272   1.252   2.656   1.346
    1SOL    HW1 4273   1.184   2.717   1.374
    1SOL    HW2 4274   1.278   2.686   1.259
    1SOL     OW 4275   3.479   1.919   1.462
    1SOL    HW1 4276   3.510   1.852   1.522
    1SOL    HW2 4277   3.534   1.910   1.385
    1SOL     OW 4278   0.393   3.957   2.881
    1SOL    HW1 4279   0.469   3.993   2.927
    1SOL    HW2 4280   0.341   3.915   2.949
    1SOL     OW 4281   1.944   0.054   2.246
    1SOL    HW1 4282   1.871   0.070   2.305
    1SOL    HW2 4283   1.923   0.105   2.167
    1SOL     OW 4284   0.576   0.490   0.305
    1SOL    HW1 4285   0.585   0.395   0.294
    1SOL    HW2 4286   0.484   0.503   0.328
    1SOL     OW 4287   1.116   3.146   1.780
    1SOL    HW1 4288   1.066   3.134   1.860
    1SOL    HW2 4289   1.184   3.210   1.802
    1SOL     OW 4290   2.469   2.326   1.612
    1SOL    HW1 4291   2.464   2.360   1.701
    1SOL    HW2 4292   2.438   2.397   1.556
    1SOL     OW 4293   2.878   2.015   3.037
    1SOL    HW1 4294   2.952   2.075   3.026
    1SOL    HW2 4295   2.887   1.980   3.125
    1SOL     OW 4296   3.324   3.904   2.443
    1SOL    HW1 4297   3.367   3.818   2.444
    1SOL    HW2 4298   3.299   3.918   2.351
    1SOL     OW 4299   0.397   2.258   1.143
    1SOL    HW1 4300   0.309   2.235   1.112
    1SOL    HW2 4301   0.453   2.186   1.113
    1SOL     OW 4302   0.335   3.034   0.563
    1SOL    HW1 4303   0.378   3.102   0.615
    1SOL    HW2 4304   0.407   2.991   0.516
    1SOL     OW 4305   3.209   0.589   3.164
    1SOL    HW1 4306   3.173   0.602   3.252
    1SOL    HW2 4307   3.250   0.503   3.168
    1SOL     OW 4308   0.895   4.060   0.546
    1SOL    HW1 4309   0.937   3.987   0.500
    1SOL    HW2 4310   0.857   4.114   0.477
    1SOL     OW 4311   3.004   2.444   0.478
    1SOL    HW1 4312   3.057   2.365   0.469
    1SOL    HW2 4313   2.930   2.417   0.532
    1SOL     OW 4314   0.649   3.208   2.569
    1SOL    HW1 4315   0.581   3.154   2.527
    1SOL    HW2 4316   0.600   3.266   2.627
    1SOL     OW 4317   2.940   3.380   1.328
    1SOL    HW1 4318   2.904   3.430   1.401
    1SOL    HW2 4319   3.012   3.434   1.295
    1SOL     OW 4320   3.541   3.218   2.465
    1SOL    HW1 4321   3.565   3.294   2.518
    1SOL    HW2 4322   3.612   3.209   2.402
    1SOL     OW 4323   2.539   1.395   2.350
    1SOL    HW1 4324   2.611   1.342   2.316
    1SOL    HW2 4325   2.472   1.332   2.374
    1SOL     OW 4326  -0.039   0.157   2.568
    1SOL    HW1 4327  -0.051   0.114   2.653
    1SOL    HW2 4328  -0.006   0.088   2.511
    1SOL     OW 4329   2.722   2.588   2.959
    1SOL    HW1 4330   2.662   2.514   2.966
    1SOL    HW2 4331   2.728   2.606   2.865
    1SOL     OW 4332   0.289   0.582   0.675
    1SOL    HW1 4333   0.227   0.530   0.728
    1SOL    HW2 4334   0.364   0.524   0.663
    1SOL     OW 4335   1.196   0.644   2.913
    1SOL    HW1 4336   1.198   0.739   2.902
    1SOL    HW2 4337   1.213   0.609   2.826
    1SOL     OW 4338   0.671   1.010   3.281
    1SOL    HW1 4339   0.661   1.023   3.376
    1SOL    HW2 4340   0.701   1.095   3.249
    1SOL     OW 4341   1.652   2.618   1.621
    1SOL    HW1 4342   1.556   2.626   1.620
    1SOL    HW2 4343   1.668   2.529   1.651
    1SOL     OW 4344   2.750   0.153   2.102
    1SOL    HW1 4345   2.839   0.162   2.068
    1SOL    HW2 4346   2.716   0.243   2.107
    1SOL     OW 4347   0.016   2.956   3.116
    1SOL    HW1 4348   0.019   2.871   3.073
    1SOL    HW2 4349   0.060   2.943   3.200
    1SOL     OW 4350   2.184   0.633   0.662
    1SOL    HW1 4351   2.215   0.704   0.718
    1SOL    HW2 4352   2.131   0.677   0.595
    1SOL     OW 4353   0.981   2.506   3.102
    1SOL    HW1 4354   1.072   2.479   3.105
    1SOL    HW2 4355   0.936   2.443   3.159
    1SOL     OW 4356   3.036   2.445   3.014
    1SOL    HW1 4357   3.050   2.506   3.086
    1SOL    HW2 4358   2.956   2.475   2.971
    1SOL     OW 4359   1.897   1.353   3.009
    1SOL    HW1 4360   1.813   1.397   3.023
    1SOL    HW2 4361   1.874   1.266   2.978
    1SOL     OW 4362   1.780   2.354   1.668
    1SOL    HW1 4363   1.875   2.349   1.670
    1SOL    HW2 4364   1.752   2.326   1.755
    1SOL     OW 4365   1.243   1.809   0.209
    1SOL    HW1 4366   1.264   1.750   0.282
    1SOL    HW2 4367   1.289   1.772   0.134
    1SOL     OW 4368   3.047   4.112   2.233
    1SOL    HW1 4369   3.046   4.155   2.148
    1SOL    HW2 4370   3.119   4.154   2.280
    1SOL     OW 4371   0.136   1.137   2.826
    1SOL    HW1 4372   0.053   1.126   2.873
    1SOL    HW2 4373   0.184   1.057   2.845
    1SOL     OW 4374   2.499   1.651   1.894
    1SOL    HW1 4375   2.510   1.657   1.799
    1SOL    HW2 4376   2.588   1.659   1.929
    1SOL     OW 4377   1.272   3.503   2.354
    1SOL    HW1 4378   1.351   3.461   2.387
    1SOL    HW2 4379   1.236   3.440   2.291
    1SOL     OW 4380   2.503   3.369   2.991
    1SOL    HW1 4381   2.476   3.289   3.037
    1SOL    HW2 4382   2.555   3.417   3.056
    1SOL     OW 4383   3.654   0.617   0.498
    1SOL    HW1 4384   3.746   0.593   0.481
    1SOL    HW2 4385   3.636   0.686   0.434
    1SOL     OW 4386   3.516   3.489   2.095
    1SOL    HW1 4387   3.479   3.570   2.059
    1SOL    HW2 4388   3.442   3.428   2.095
    1SOL     OW 4389   0.967   1.725   1.221
    1SOL    HW1 4390   0.916   1.651   1.187
    1SOL    HW2 4391   1.058   1.702   1.203
    1SOL     OW 4392   0.801   4.114   0.305
    1SOL    HW1 4393   0.765   4.039   0.257
    1SOL    HW2 4394   0.865   4.152   0.246
    1SOL     OW 4395   0.392   2.367   1.716
    1SOL    HW1 4396   0.331   2.408   1.778
    1SOL    HW2 4397   0.345   2.369   1.632
    1SOL     OW 4398   2.026   0.223   0.393
    1SOL    HW1 4399   2.101   0.185   0.439
    1SOL    HW2 4400   2.061   0.303   0.352
    1SOL     OW 4401   1.647   1.829   1.138
    1SOL    HW1 4402   1.688   1.742   1.135
    1SOL    HW2 4403   1.611   1.835   1.226
    1SOL     OW 4404   0.110   3.825   0.967
    1SOL    HW1 4405   0.189   3.831   0.913
    1SOL    HW2 4406   0.126   3.750   1.024
    1SOL     OW 4407   3.505   0.167   1.930
    1SOL    HW1 4408   3.503   0.165   1.834
    1SOL    HW2 4409   3.422   0.207   1.955
    1SOL     OW 4410   1.335   1.792   0.615
    1SOL    HW1 4411   1.357   1.861   0.677
    1SOL    HW2 4412   1.388   1.813   0.537
    1SOL     OW 4413   3.413   0.136   0.544
    1SOL    HW1 4414   3.422   0.150   0.450
    1SOL    HW2 4415   3.469   0.203   0.584
    1SOL     OW 4416   0.610   2.892   0.610
    1SOL    HW1 4417   0.612   2.924   0.520
    1SOL    HW2 4418   0.700   2.899   0.640
    1SOL     OW 4419   3.111   1.440   0.897
    1SOL    HW1 4420   3.050   1.422   0.968
    1SOL    HW2 4421   3.103   1.534   0.881
    1SOL     OW 4422   1.418   1.629   1.982
    1SOL    HW1 4423   1.392   1.557   2.040
    1SOL    HW2 4424   1.509   1.608   1.959
    1SOL     OW 4425   0.008   2.901   2.766
    1SOL    HW1 4426  -0.050   2.972   2.738
    1SOL    HW2 4427   0.034   2.857   2.685
    1SOL     OW 4428   2.202   1.732   2.521
    1SOL    HW1 4429   2.271   1.695   2.467
    1SOL    HW2 4430   2.178   1.662   2.581
    1SOL     OW 4431   0.387   3.735   1.540
    1SOL    HW1 4432   0.476   3.723   1.573
    1SOL    HW2 4433   0.333   3.748   1.618
    1SOL     OW 4434   1.755   3.752   3.303
    1SOL    HW1 4435   1.744   3.787   3.392
    1SOL    HW2 4436   1.848   3.765   3.284
    1SOL     OW 4437   0.616   2.252   1.542
    1SOL    HW1 4438   0.556   2.325   1.559
    1SOL    HW2 4439   0.575   2.205   1.468
    1SOL     OW 4440   2.911   1.528   1.951
    1SOL    HW1 4441   2.966   1.533   1.873
    1SOL    HW2 4442   2.969   1.493   2.019
    1SOL     OW 4443   0.224   2.319   1.478
    1SOL    HW1 4444   0.202   2.412   1.473
    1SOL    HW2 4445   0.144   2.278   1.513
    1SOL     OW 4446   1.897   0.926   1.998
    1SOL    HW1 4447   1.903   0.834   1.973
    1SOL    HW2 4448   1.863   0.925   2.087
    1SOL     OW 4449   2.863   1.171   3.259
    1SOL    HW1 4450   2.908   1.088   3.274
    1SOL    HW2 4451   2.904   1.207   3.181
    1SOL     OW 4452   3.627   2.450   1.772
    1SOL    HW1 4453   3.714   2.416   1.791
    1SOL    HW2 4454   3.567   2.379   1.796
    1SOL     OW 4455   2.473   3.137   2.325
    1SOL    HW1 4456   2.399   3.177   2.372
    1SOL    HW2 4457   2.449   3.144   2.233
    1SOL     OW 4458   0.354   1.481   0.055
    1SOL    HW1 4459   0.418   1.414   0.031
    1SOL    HW2 4460   0.332   1.523  -0.028
    1SOL     OW 4461   1.092   2.177   3.423
    1SOL    HW1 4462   1.128   2.200   3.509
    1SOL    HW2 4463   1.004   2.146   3.442
    1SOL     OW 4464   1.179   3.467   0.617
    1SOL    HW1 4465   1.159   3.469   0.711
    1SOL    HW2 4466   1.273   3.479   0.612
    1SOL     OW 4467   2.869   3.435   1.000
    1SOL    HW1 4468   2.960   3.419   0.973
    1SOL    HW2 4469   2.843   3.512   0.949
    1SOL     OW 4470   2.103   0.877   2.885
    1SOL    HW1 4471   2.198   0.868   2.894
    1SOL    HW2 4472   2.092   0.928   2.805
    1SOL     OW 4473   0.043   1.111   0.096
    1SOL    HW1 4474   0.054   1.198   0.056
    1SOL    HW2 4475   0.012   1.129   0.184
    1SOL     OW 4476   3.425   2.353   3.059
    1SOL    HW1 4477   3.503   2.298   3.052
    1SOL    HW2 4478   3.387   2.352   2.972
    1SOL     OW 4479   0.909   2.165   2.058
    1SOL    HW1 4480   0.946   2.251   2.080
    1SOL    HW2 4481   0.898   2.168   1.963
    1SOL     OW 4482   3.074   2.715   3.190
    1SOL    HW1 4483   3.154   2.767   3.202
    1SOL    HW2 4484   3.034   2.712   3.276
    1SOL     OW 4485   1.967   2.069   1.463
    1SOL    HW1 4486   1.900   2.018   1.509
    1SOL    HW2 4487   1.918   2.136   1.416
    1SOL     OW 4488   3.362   1.535   1.786
    1SOL    HW1 4489   3.344   1.451   1.827
    1SOL    HW2 4490   3.389   1.592   1.858
    1SOL     OW 4491   2.471   0.275   2.328
    1SOL    HW1 4492   2.526   0.291   2.251
    1SOL    HW2 4493   2.462   0.180   2.331
    1SOL     OW 4494   1.663   0.816   0.328
    1SOL    HW1 4495   1.627   0.892   0.374
    1SOL    HW2 4496   1.601   0.799   0.257
    1SOL     OW 4497   1.767   4.100   3.329
    1SOL    HW1 4498   1.854   4.072   3.304
    1SOL    HW2 4499   1.754   4.063   3.417
    1SOL     OW 4500   1.828   2.531   2.699
    1SOL    HW1 4501   1.758   2.490   2.751
    1SOL    HW2 4502   1.786   2.605   2.655
    1SOL     OW 4503   2.965   1.885   1.258
    1SOL    HW1 4504   2.997   1.972   1.233
    1SOL    HW2 4505   2.991   1.829   1.186
    1SOL     OW 4506   3.301   3.127   2.304
    1SOL    HW1 4507   3.370   3.155   2.365
    1SOL    HW2 4508   3.284   3.204   2.250
    1SOL     OW 4509   0.676   2.138   0.785
    1SOL    HW1 4510   0.724   2.207   0.832
    1SOL    HW2 4511   0.603   2.184   0.744
    1SOL     OW 4512   0.833   1.487   1.143
    1SOL    HW1 4513   0.787   1.443   1.072
    1SOL    HW2 4514   0.900   1.424   1.171
    1SOL     OW 4515   0.437   1.958   2.636
    1SOL    HW1 4516   0.471   1.876   2.598
    1SOL    HW2 4517   0.503   1.983   2.701
    1SOL     OW 4518   2.961   3.168   2.321
    1SOL    HW1 4519   3.000   3.123   2.246
    1SOL    HW2 4520   2.881   3.208   2.286
    1SOL     OW 4521   1.968   3.086   1.759
    1SOL    HW1 4522   1.957   3.178   1.734
    1SOL    HW2 4523   2.036   3.087   1.827
    1SOL     OW 4524   3.047   2.138   1.139
    1SOL    HW1 4525   3.099   2.177   1.069
    1SOL    HW2 4526   3.085   2.175   1.219
    1SOL     OW 4527   3.224   2.293   2.355
    1SOL    HW1 4528   3.315   2.266   2.365
    1SOL    HW2 4529   3.215   2.309   2.261
    1SOL     OW 4530   3.105   2.975   2.468
    1SOL    HW1 4531   3.021   3.021   2.459
    1SOL    HW2 4532   3.166   3.026   2.415
    1SOL     OW 4533   2.088   3.028   2.572
    1SOL    HW1 4534   2.042   2.988   2.646
    1SOL    HW2 4535   2.170   2.979   2.566
    1SOL     OW 4536   3.319   3.863   1.609
    1SOL    HW1 4537   3.396   3.849   1.665
    1SOL    HW2 4538   3.288   3.951   1.634
    1SOL     OW 4539   0.246   0.163   0.872
    1SOL    HW1 4540   0.217   0.149   0.962
    1SOL    HW2 4541   0.221   0.083   0.826
    1SOL     OW 4542   1.048   0.609   3.171
    1SOL    HW1 4543   1.105   0.633   3.099
    1SOL    HW2 4544   1.045   0.687   3.226
    1SOL     OW 4545   0.719   2.317   1.019
    1SOL    HW1 4546   0.735   2.376   1.093
    1SOL    HW2 4547   0.678   2.240   1.059
    1SOL     OW 4548   2.923   2.079   0.205
    1SOL    HW1 4549   2.848   2.026   0.234
    1SOL    HW2 4550   2.886   2.165   0.187
    1SOL     OW 4551   1.690   3.343   0.218
    1SOL    HW1 4552   1.600   3.324   0.190
    1SOL    HW2 4553   1.680   3.390   0.300
    1SOL     OW 4554   2.356   0.776   1.170
    1SOL    HW1 4555   2.306   0.820   1.239
    1SOL    HW2 4556   2.443   0.817   1.175
    1SOL     OW 4557   0.260   2.357   0.493
    1SOL    HW1 4558   0.298   2.428   0.442
    1SOL    HW2 4559   0.178   2.337   0.449
    1SOL     OW 4560   2.068   1.581   1.561
    1SOL    HW1 4561   2.121   1.552   1.487
    1SOL    HW2 4562   1.982   1.599   1.524
    1SOL     OW 4563   0.606   0.046   1.125
    1SOL    HW1 4564   0.664  -0.017   1.167
    1SOL    HW2 4565   0.518   0.016   1.148
    1SOL     OW 4566   0.787   0.053   2.906
    1SOL    HW1 4567   0.815   0.082   2.820
    1SOL    HW2 4568   0.844   0.100   2.967
    1SOL     OW 4569   2.970   1.780   2.181
    1SOL    HW1 4570   2.946   1.709   2.121
    1SOL    HW2 4571   2.979   1.857   2.126
    1SOL     OW 4572   0.192   2.663   0.621
    1SOL    HW1 4573   0.211   2.618   0.539
    1SOL    HW2 4574   0.278   2.682   0.659
    1SOL     OW 4575   3.406   2.547   0.728
    1SOL    HW1 4576   3.377   2.579   0.642
    1SOL    HW2 4577   3.368   2.460   0.735
    1SOL     OW 4578   2.136   3.279   2.109
    1SOL    HW1 4579   2.192   3.277   2.031
    1SOL    HW2 4580   2.181   3.223   2.172
    1SOL     OW 4581   2.747   2.938   2.915
    1SOL    HW1 4582   2.795   3.019   2.898
    1SOL    HW2 4583   2.812   2.869   2.902
    1SOL     OW 4584   0.933   2.061   1.590
    1SOL    HW1 4585   1.018   2.025   1.615
    1SOL    HW2 4586   0.949   2.106   1.507
    1SOL     OW 4587   3.173   1.461   2.471
    1SOL    HW1 4588   3.186   1.523   2.400
    1SOL    HW2 4589   3.251   1.472   2.526
    1SOL     OW 4590   1.913   1.810   2.020
    1SOL    HW1 4591   1.997   1.775   2.050
    1SOL    HW2 4592   1.900   1.771   1.934
    1SOL     OW 4593   0.315   1.310   1.094
    1SOL    HW1 4594   0.402   1.277   1.114
    1SOL    HW2 4595   0.280   1.249   1.029
    1SOL     OW 4596   0.212   1.028   2.367
    1SOL    HW1 4597   0.147   0.960   2.383
    1SOL    HW2 4598   0.275   1.018   2.439
    1SOL     OW 4599   2.619   2.648   2.356
    1SOL    HW1 4600   2.542   2.692   2.392
    1SOL    HW2 4601   2.639   2.579   2.419
    1SOL     OW 4602   2.681   4.086   2.795
    1SOL    HW1 4603   2.663   3.994   2.816
    1SOL    HW2 4604   2.618   4.107   2.726
    1SOL     OW 4605   2.196   0.089   1.121
    1SOL    HW1 4606   2.112   0.130   1.140
    1SOL    HW2 4607   2.176  -0.002   1.103
    1SOL     OW 4608   2.825   1.444   0.198
    1SOL    HW1 4609   2.856   1.353   0.199
    1SOL    HW2 4610   2.785   1.454   0.111
    1SOL     OW 4611   1.145   2.970   1.298
    1SOL    HW1 4612   1.111   2.994   1.212
    1SOL    HW2 4613   1.071   2.926   1.341
    1SOL     OW 4614   3.386   0.926  -0.006
    1SOL    HW1 4615   3.343   1.010  -0.022
    1SOL    HW2 4616   3.476   0.939  -0.037
    1SOL     OW 4617   0.901   3.737   2.230
    1SOL    HW1 4618   0.843   3.662   2.217
    1SOL    HW2 4619   0.869   3.778   2.310
    1SOL     OW 4620   1.783   1.558   1.515
    1SOL    HW1 4621   1.740   1.473   1.507
    1SOL    HW2 4622   1.720   1.614   1.560
    1SOL     OW 4623   3.112   1.231   1.698
    1SOL    HW1 4624   3.024   1.205   1.727
    1SOL    HW2 4625   3.121   1.191   1.611
    1SOL     OW 4626   3.163   1.866   3.383
    1SOL    HW1 4627   3.089   1.900   3.333
    1SOL    HW2 4628   3.151   1.771   3.383
    1SOL     OW 4629   0.781   3.842   3.091
    1SOL    HW1 4630   0.722   3.914   3.069
    1SOL    HW2 4631   0.795   3.797   3.009
    1SOL     OW 4632   2.890   1.081   1.696
    1SOL    HW1 4633   2.881   1.085   1.601
    1SOL    HW2 4634   2.914   0.990   1.714
    1SOL     OW 4635   3.029   0.394   1.828
    1SOL    HW1 4636   3.015   0.387   1.734
    1SOL    HW2 4637   2.941   0.403   1.865
    1SOL     OW 4638   3.054   3.684   1.728
    1SOL    HW1 4639   3.019   3.767   1.694
    1SOL    HW2 4640   3.149   3.694   1.723
    1SOL     OW 4641   2.683   1.852   0.921
    1SOL    HW1 4642   2.721   1.914   0.858
    1SOL    HW2 4643   2.615   1.902   0.966
    1SOL     OW 4644   3.434   0.982   1.734
    1SOL    HW1 4645   3.402   0.950   1.650
    1SOL    HW2 4646   3.515   1.028   1.713
    1SOL     OW 4647   3.107   0.927   1.774
    1SOL    HW1 4648   3.194   0.966   1.782
    1SOL    HW2 4649   3.069   0.935   1.861
    1SOL     OW 4650   1.015   3.856   0.426
    1SOL    HW1 4651   1.038   3.842   0.334
    1SOL    HW2 4652   1.013   3.769   0.465
    1SOL     OW 4653   0.916   0.918   1.216
    1SOL    HW1 4654   0.930   0.839   1.269
    1SOL    HW2 4655   0.918   0.990   1.280
    1SOL     OW 4656   0.477   2.452   3.109
    1SOL    HW1 4657   0.446   2.506   3.181
    1SOL    HW2 4658   0.470   2.363   3.141
    1SOL     OW 4659   2.482   1.359   1.750
    1SOL    HW1 4660   2.400   1.320   1.719
    1SOL    HW2 4661   2.471   1.453   1.733
    1SOL     OW 4662   0.499   3.390   0.243
    1SOL    HW1 4663   0.438   3.349   0.305
    1SOL    HW2 4664   0.525   3.319   0.185
    1SOL     OW 4665   0.698   3.696   1.338
    1SOL    HW1 4666   0.661   3.730   1.419
    1SOL    HW2 4667   0.767   3.636   1.366
    1SOL     OW 4668   0.398   1.171   0.311
    1SOL    HW1 4669   0.419   1.120   0.233
    1SOL    HW2 4670   0.327   1.229   0.283
    1SOL     OW 4671   3.666   3.302   1.626
    1SOL    HW1 4672   3.676   3.395   1.605
    1SOL    HW2 4673   3.699   3.256   1.549
    1SOL     OW 4674   0.917   2.513   2.118
    1SOL    HW1 4675   0.842   2.562   2.155
    1SOL    HW2 4676   0.934   2.445   2.182
    1SOL     OW 4677   2.818   0.275   1.346
    1SOL    HW1 4678   2.876   0.238   1.279
    1SOL    HW2 4679   2.826   0.370   1.334
    1SOL     OW 4680   2.044   2.561   2.477
    1SOL    HW1 4681   1.971   2.556   2.538
    1SOL    HW2 4682   2.017   2.628   2.413
    1SOL     OW 4683   2.950   1.730   2.455
    1SOL    HW1 4684   2.967   1.775   2.372
    1SOL    HW2 4685   2.881   1.667   2.433
    1SOL     OW 4686   1.886   3.697   1.874
    1SOL    HW1 4687   1.940   3.703   1.795
    1SOL    HW2 4688   1.892   3.785   1.912
    1SOL     OW 4689   3.315   0.736   0.812
    1SOL    HW1 4690   3.334   0.830   0.821
    1SOL    HW2 4691   3.400   0.697   0.788
    1SOL     OW 4692   0.733   2.103   2.973
    1SOL    HW1 4693   0.721   2.016   2.937
    1SOL    HW2 4694   0.809   2.095   3.031
    1SOL     OW 4695   1.729   3.229   1.819
    1SOL    HW1 4696   1.739   3.297   1.885
    1SOL    HW2 4697   1.766   3.150   1.861
    1SOL     OW 4698   1.832   3.080   0.118
    1SOL    HW1 4699   1.835   3.016   0.189
    1SOL    HW2 4700   1.782   3.154   0.154
    1SOL     OW 4701   2.625   0.286   0.642
    1SOL    HW1 4702   2.578   0.205   0.620
    1SOL    HW2 4703   2.683   0.301   0.568
    1SOL     OW 4704   3.112   3.554   2.296
    1SOL    HW1 4705   3.105   3.644   2.266
    1SOL    HW2 4706   3.080   3.555   2.386
    1SOL     OW 4707   1.682   1.827   2.464
    1SOL    HW1 4708   1.654   1.918   2.453
    1SOL    HW2 4709   1.666   1.785   2.380
    1SOL     OW 4710   0.508   2.701   2.657
    1SOL    HW1 4711   0.484   2.674   2.745
    1SOL    HW2 4712   0.562   2.629   2.624
    1SOL     OW 4713   2.209   0.571   3.063
    1SOL    HW1 4714   2.151   0.538   3.132
    1SOL    HW2 4715   2.259   0.641   3.106
    1SOL     OW 4716   1.301   2.184   2.491
    1SOL    HW1 4717   1.382   2.146   2.458
    1SOL    HW2 4718   1.239   2.111   2.491
    1SOL     OW 4719   1.074   2.866   1.705
    1SOL    HW1 4720   0.990   2.865   1.752
    1SOL    HW2 4721   1.120   2.942   1.739
    1SOL     OW 4722   1.933   4.044   0.904
    1SOL    HW1 4723   2.017   4.069   0.941
    1SOL    HW2 4724   1.873   4.113   0.932
    1SOL     OW 4725   1.996   2.259   3.373
    1SOL    HW1 4726   2.055   2.274   3.446
    1SOL    HW2 4727   1.909   2.255   3.413
    1SOL     OW 4728   1.802   1.266   2.676
    1SOL    HW1 4729   1.834   1.182   2.709
    1SOL    HW2 4730   1.718   1.278   2.720
    1SOL     OW 4731   0.686   0.534   2.110
    1SOL    HW1 4732   0.706   0.542   2.204
    1SOL    HW2 4733   0.601   0.575   2.101
    1SOL     OW 4734   2.282   0.383   1.330
    1SOL    HW1 4735   2.374   0.371   1.304
    1SOL    HW2 4736   2.246   0.441   1.262
    1SOL     OW 4737   0.759   3.125   3.276
    1SOL    HW1 4738   0.778   3.210   3.235
    1SOL    HW2 4739   0.686   3.090   3.226
    1SOL     OW 4740   1.832   2.264   1.349
    1SOL    HW1 4741   1.788   2.302   1.273
    1SOL    HW2 4742   1.849   2.338   1.407
    1SOL     OW 4743   0.219   1.972   2.144
    1SOL    HW1 4744   0.280   1.995   2.214
    1SOL    HW2 4745   0.166   2.050   2.132
    1SOL     OW 4746   0.934   3.530   3.028
    1SOL    HW1 4747   1.011   3.570   3.070
    1SOL    HW2 4748   0.935   3.564   2.939
    1SOL     OW 4749   3.008   0.251   0.727
    1SOL    HW1 4750   2.967   0.337   0.738
    1SOL    HW2 4751   3.008   0.237   0.632
    1SOL     OW 4752   2.650   1.462   1.195
    1SOL    HW1 4753   2.630   1.498   1.108
    1SOL    HW2 4754   2.742   1.436   1.189
    1SOL     OW 4755   3.336   2.809   2.967
    1SOL    HW1 4756   3.307   2.868   3.037
    1SOL    HW2 4757   3.309   2.853   2.886
    1SOL     OW 4758   0.303   1.319   2.741
    1SOL    HW1 4759   0.330   1.382   2.809
    1SOL    HW2 4760   0.246   1.257   2.787
    1SOL     OW 4761   0.273   0.469   0.348
    1SOL    HW1 4762   0.200   0.462   0.287
    1SOL    HW2 4763   0.300   0.378   0.364
    1SOL     OW 4764   1.168   0.097   1.333
    1SOL    HW1 4765   1.254   0.056   1.340
    1SOL    HW2 4766   1.107   0.023   1.332
    1SOL     OW 4767   1.439   1.412   2.193
    1SOL    HW1 4768   1.444   1.345   2.261
    1SOL    HW2 4769   1.530   1.425   2.165
    1SOL     OW 4770   3.042   2.536   1.136
    1SOL    HW1 4771   2.993   2.596   1.080
    1SOL    HW2 4772   2.975   2.496   1.191
    1SOL     OW 4773   2.638   0.910   1.843
    1SOL    HW1 4774   2.671   0.913   1.933
    1SOL    HW2 4775   2.687   0.839   1.803
    1SOL     OW 4776   3.594   2.581   3.377
    1SOL    HW1 4777   3.523   2.640   3.351
    1SOL    HW2 4778   3.665   2.600   3.315
    1SOL     OW 4779   0.442   2.178   3.215
    1SOL    HW1 4780   0.457   2.150   3.125
    1SOL    HW2 4781   0.503   2.126   3.267
    1SOL     OW 4782   2.362   2.428   2.195
    1SOL    HW1 4783   2.421   2.355   2.175
    1SOL    HW2 4784   2.316   2.399   2.274
    1SOL     OW 4785   0.440   2.064   2.939
    1SOL    HW1 4786   0.518   2.116   2.921
    1SOL    HW2 4787   0.465   1.974   2.914
    1SOL     OW 4788   1.264   2.457   2.373
    1SOL    HW1 4789   1.296   2.379   2.417
    1SOL    HW2 4790   1.174   2.468   2.403
    1SOL     OW 4791   1.561   1.232   2.864
    1SOL    HW1 4792   1.567   1.144   2.901
    1SOL    HW2 4793   1.602   1.288   2.930
    1SOL     OW 4794   3.243   0.819   1.338
    1SOL    HW1 4795   3.268   0.887   1.402
    1SOL    HW2 4796   3.283   0.849   1.256
    1SOL     OW 4797   2.568   2.351   3.025
    1SOL    HW1 4798   2.586   2.258   3.039
    1SOL    HW2 4799   2.478   2.353   2.993
    1SOL     OW 4800   1.598   1.017   0.507
    1SOL    HW1 4801   1.692   1.020   0.527
    1SOL    HW2 4802   1.555   1.017   0.592
    1SOL     OW 4803   1.278   2.759   2.367
    1SOL    HW1 4804   1.373   2.753   2.371
    1SOL    HW2 4805   1.256   2.729   2.279
    1SOL     OW 4806   2.896   2.739   1.707
    1SOL    HW1 4807   2.938   2.812   1.664
    1SOL    HW2 4808   2.896   2.669   1.642
    1SOL     OW 4809   0.421   0.546   2.268
    1SOL    HW1 4810   0.452   0.615   2.209
    1SOL    HW2 4811   0.374   0.593   2.337
    1SOL     OW 4812   2.525   0.907   3.326
    1SOL    HW1 4813   2.497   0.984   3.377
    1SOL    HW2 4814   2.444   0.868   3.294
    1SOL     OW 4815   0.586   2.585   0.295
    1SOL    HW1 4816   0.528   2.656   0.268
    1SOL    HW2 4817   0.670   2.628   0.311
    1SOL     OW 4818   0.725   0.774   2.725
    1SOL    HW1 4819   0.726   0.818   2.810
    1SOL    HW2 4820   0.636   0.787   2.692
    1SOL     OW 4821   3.333   3.265   2.771
    1SOL    HW1 4822   3.376   3.193   2.816
    1SOL    HW2 4823   3.240   3.244   2.774
    1SOL     OW 4824   0.499   2.858   1.196
    1SOL    HW1 4825   0.482   2.766   1.176
    1SOL    HW2 4826   0.571   2.881   1.138
    1SOL     OW 4827   2.312   2.783   1.580
    1SOL    HW1 4828   2.337   2.696   1.547
    1SOL    HW2 4829   2.296   2.769   1.673
    1SOL     OW 4830   2.722   0.647   1.003
    1SOL    HW1 4831   2.692   0.568   0.958
    1SOL    HW2 4832   2.708   0.718   0.941
    1SOL     OW 4833   1.841   0.133   1.015
    1SOL    HW1 4834   1.894   0.184   1.076
    1SOL    HW2 4835   1.785   0.198   0.972
    1SOL     OW 4836   2.098   2.394   0.251
    1SOL    HW1 4837   2.017   2.434   0.282
    1SOL    HW2 4838   2.148   2.466   0.215
    1SOL     OW 4839   0.483   3.246   0.688
    1SOL    HW1 4840   0.508   3.231   0.779
    1SOL    HW2 4841   0.566   3.255   0.641
    1SOL     OW 4842   0.179   2.674   3.209
    1SOL    HW1 4843   0.240   2.718   3.269
    1SOL    HW2 4844   0.217   2.687   3.122
    1SOL     OW 4845   0.275   3.070   3.258
    1SOL    HW1 4846   0.355   3.071   3.311
    1SOL    HW2 4847   0.214   3.015   3.307
    1SOL     OW 4848   3.023   3.213   1.999
    1SOL    HW1 4849   3.000   3.121   1.986
    1SOL    HW2 4850   2.978   3.260   1.929
    1SOL     OW 4851   1.301   2.845   3.213
    1SOL    HW1 4852   1.209   2.823   3.222
    1SOL    HW2 4853   1.302   2.939   3.197
    1SOL     OW 4854   3.487   4.000   0.578
    1SOL    HW1 4855   3.480   4.075   0.638
    1SOL    HW2 4856   3.560   4.022   0.520
    1SOL     OW 4857   3.114   0.645   0.656
    1SOL    HW1 4858   3.148   0.562   0.622
    1SOL    HW2 4859   3.185   0.679   0.710
    1SOL     OW 4860   0.043   0.940   3.182
    1SOL    HW1 4861   0.133   0.964   3.205
    1SOL    HW2 4862   0.028   0.857   3.227
    1SOL     OW 4863   1.026   2.046   2.632
    1SOL    HW1 4864   1.048   1.962   2.672
    1SOL    HW2 4865   0.993   2.023   2.545
    1SOL     OW 4866   1.835   0.102   0.564
    1SOL    HW1 4867   1.895   0.125   0.494
    1SOL    HW2 4868   1.819   0.008   0.553
    1SOL     OW 4869   0.508   0.076   2.296
    1SOL    HW1 4870   0.502   0.130   2.375
    1SOL    HW2 4871   0.601   0.078   2.274
    1SOL     OW 4872   0.764   1.844   2.919
    1SOL    HW1 4873   0.804   1.758   2.918
    1SOL    HW2 4874   0.742   1.862   2.827
    1SOL     OW 4875   2.851   4.197   0.474
    1SOL    HW1 4876   2.769   4.148   0.467
    1SOL    HW2 4877   2.883   4.178   0.562
    1SOL     OW 4878   2.224   2.104   2.162
    1SOL    HW1 4879   2.287   2.047   2.207
    1SOL    HW2 4880   2.271   2.135   2.084
    1SOL     OW 4881   2.323   3.435   1.880
    1SOL    HW1 4882   2.284   3.470   1.800
    1SOL    HW2 4883   2.314   3.505   1.945
    1SOL     OW 4884   3.347   3.463   1.546
    1SOL    HW1 4885   3.284   3.401   1.511
    1SOL    HW2 4886   3.372   3.517   1.471
    1SOL     OW 4887   2.820   0.793   0.516
    1SOL    HW1 4888   2.908   0.755   0.519
    1SOL    HW2 4889   2.783   0.761   0.434
    1SOL     OW 4890   1.715   3.943   0.803
    1SOL    HW1 4891   1.697   3.849   0.813
    1SOL    HW2 4892   1.797   3.956   0.849
    1SOL     OW 4893   3.533   3.280   1.125
    1SOL    HW1 4894   3.485   3.226   1.062
    1SOL    HW2 4895   3.473   3.290   1.198
    1SOL     OW 4896   2.523   1.061   2.229
    1SOL    HW1 4897   2.615   1.075   2.251
    1SOL    HW2 4898   2.476   1.134   2.270
    1SOL     OW 4899   2.688   2.572   2.100
    1SOL    HW1 4900   2.690   2.622   2.182
    1SOL    HW2 4901   2.630   2.623   2.043
    1SOL     OW 4902   3.609   4.132   1.608
    1SOL    HW1 4903   3.703   4.149   1.602
    1SOL    HW2 4904   3.568   4.217   1.593
    1SOL     OW 4905   0.922   0.380   0.187
    1SOL    HW1 4906   0.977   0.325   0.131
    1SOL    HW2 4907   0.852   0.412   0.129
    1SOL     OW 4908   3.225   1.299   0.433
    1SOL    HW1 4909   3.218   1.330   0.524
    1SOL    HW2 4910   3.143   1.254   0.417
    1SOL     OW 4911   2.506   2.044   0.676
    1SOL    HW1 4912   2.471   2.092   0.601
    1SOL    HW2 4913   2.506   1.952   0.648
    1SOL     OW 4914   1.378   0.386   0.844
    1SOL    HW1 4915   1.326   0.463   0.819
    1SOL    HW2 4916   1.334   0.352   0.922
    1SOL     OW 4917   1.365   3.895   0.068
    1SOL    HW1 4918   1.409   3.814   0.094
    1SOL    HW2 4919   1.272   3.877   0.084
    1SOL     OW 4920   1.042   3.072   1.050
    1SOL    HW1 4921   1.113   3.135   1.040
    1SOL    HW2 4922   0.983   3.090   0.976
    1SOL     OW 4923   3.076   2.188   3.056
    1SOL    HW1 4924   3.063   2.279   3.031
    1SOL    HW2 4925   3.144   2.191   3.124
    1SOL     OW 4926   1.373   3.708   1.989
    1SOL    HW1 4927   1.457   3.749   1.968
    1SOL    HW2 4928   1.393   3.615   1.998
    1SOL     OW 4929   3.019   3.641   2.554
    1SOL    HW1 4930   3.086   3.680   2.611
    1SOL    HW2 4931   2.973   3.717   2.517
    1SOL     OW 4932   2.687   3.581   0.342
    1SOL    HW1 4933   2.762   3.522   0.339
    1SOL    HW2 4934   2.616   3.531   0.302
    1SOL     OW 4935   2.800   0.757   2.417
    1SOL    HW1 4936   2.855   0.679   2.426
    1SOL    HW2 4937   2.718   0.733   2.459
    1SOL     OW 4938   2.282   0.801   0.918
    1SOL    HW1 4939   2.336   0.876   0.891
    1SOL    HW2 4940   2.297   0.794   1.012
    1SOL     OW 4941   1.654   3.238   2.768
    1SOL    HW1 4942   1.718   3.198   2.709
    1SOL    HW2 4943   1.656   3.183   2.846
    1SOL     OW 4944   0.859   0.605   1.910
    1SOL    HW1 4945   0.786   0.577   1.965
    1SOL    HW2 4946   0.877   0.530   1.854
    1SOL     OW 4947   1.782   2.192   1.005
    1SOL    HW1 4948   1.772   2.161   1.095
    1SOL    HW2 4949   1.739   2.125   0.952
    1SOL     OW 4950   2.164   4.031   1.091
    1SOL    HW1 4951   2.162   3.945   1.048
    1SOL    HW2 4952   2.197   4.013   1.179
    1SOL     OW 4953   2.790   0.466   0.061
    1SOL    HW1 4954   2.723   0.501   0.120
    1SOL    HW2 4955   2.749   0.469  -0.025
    1SOL     OW 4956   1.129   0.934   1.032
    1SOL    HW1 4957   1.051   0.911   1.082
    1SOL    HW2 4958   1.190   0.863   1.049
    1SOL     OW 4959   2.787   0.848   3.412
    1SOL    HW1 4960   2.853   0.843   3.344
    1SOL    HW2 4961   2.704   0.862   3.366
    1SOL     OW 4962   0.481   4.017   0.737
    1SOL    HW1 4963   0.407   4.074   0.718
    1SOL    HW2 4964   0.554   4.077   0.754
    1SOL     OW 4965   0.366   1.036   0.890
    1SOL    HW1 4966   0.278   1.060   0.862
    1SOL    HW2 4967   0.358   0.946   0.922
    1SOL     OW 4968   0.683   3.933   2.695
    1SOL    HW1 4969   0.595   3.896   2.703
    1SOL    HW2 4970   0.668   4.024   2.669
    1SOL     OW 4971   2.699   0.787   0.162
    1SOL    HW1 4972   2.641   0.853   0.124
    1SOL    HW2 4973   2.757   0.762   0.090
    1SOL     OW 4974   3.316   1.288   1.920
    1SOL    HW1 4975   3.236   1.277   1.869
    1SOL    HW2 4976   3.292   1.260   2.009
    1SOL     OW 4977   0.442   1.275   2.168
    1SOL    HW1 4978   0.476   1.350   2.119
    1SOL    HW2 4979   0.468   1.199   2.117
    1SOL     OW 4980   3.190   3.943   1.237
    1SOL    HW1 4981   3.224   3.960   1.149
    1SOL    HW2 4982   3.220   4.017   1.290
    1SOL     OW 4983   1.964   1.416   2.524
    1SOL    HW1 4984   2.004   1.456   2.601
    1SOL    HW2 4985   1.896   1.358   2.559
    1SOL     OW 4986   2.055   4.131   1.429
    1SOL    HW1 4987   2.133   4.183   1.409
    1SOL    HW2 4988   2.076   4.043   1.398
    1SOL     OW 4989   2.448   2.200   1.381
    1SOL    HW1 4990   2.453   2.221   1.474
    1SOL    HW2 4991   2.355   2.195   1.362
    1SOL     OW 4992   2.571   0.926   3.061
    1SOL    HW1 4993   2.569   0.936   3.156
    1SOL    HW2 4994   2.600   0.836   3.047
    1SOL     OW 4995   3.431   0.440   1.745
    1SOL    HW1 4996   3.440   0.523   1.698
    1SOL    HW2 4997   3.511   0.433   1.797
    1SOL     OW 4998  -0.006   0.608   3.051
    1SOL    HW1 4999   0.035   0.571   3.129
    1SOL    HW2 5000  -0.063   0.677   3.084
    1SOL     OW 5001   2.001   4.157   0.244
    1SOL    HW1 5002   2.024   4.239   0.201
    1SOL    HW2 5003   2.054   4.155   0.323
    1SOL     OW 5004   2.838   2.428   0.688
    1SOL    HW1 5005   2.833   2.383   0.772
    1SOL    HW2 5006   2.758   2.402   0.643
    1SOL     OW 5007   1.727   1.007   2.743
    1SOL    HW1 5008   1.728   0.953   2.664
    1SOL    HW2 5009   1.655   0.973   2.795
    1SOL     OW 5010   2.533   4.127   1.608
    1SOL    HW1 5011   2.628   4.135   1.616
    1SOL    HW2 5012   2.500   4.157   1.693
    1SOL     OW 5013   0.907   3.996   2.857
    1SOL    HW1 5014   0.844   3.974   2.788
    1SOL    HW2 5015   0.884   4.086   2.881
    1SOL     OW 5016   2.271   2.674   3.002
    1SOL    HW1 5017   2.273   2.768   3.023
    1SOL    HW2 5018   2.290   2.631   3.085
    1SOL     OW 5019   1.579   0.886   1.340
    1SOL    HW1 5020   1.512   0.951   1.317
    1SOL    HW2 5021   1.613   0.917   1.424
    1SOL     OW 5022   1.226   0.996   2.751
    1SOL    HW1 5023   1.169   1.063   2.789
    1SOL    HW2 5024   1.167   0.937   2.705
    1SOL     OW 5025   2.296   3.377   0.773
    1SOL    HW1 5026   2.290   3.471   0.788
    1SOL    HW2 5027   2.291   3.338   0.860
    1SOL     OW 5028   2.864   3.489   2.057
    1SOL    HW1 5029   2.836   3.560   2.000
    1SOL    HW2 5030   2.941   3.524   2.103
    1SOL     OW 5031   2.755   3.762   1.388
    1SOL    HW1 5032   2.732   3.854   1.371
    1SOL    HW2 5033   2.847   3.756   1.362
    1SOL     OW 5034   0.147   2.206   1.761
    1SOL    HW1 5035   0.241   2.186   1.764
    1SOL    HW2 5036   0.113   2.149   1.693
    1SOL     OW 5037   0.303   3.775   1.972
    1SOL    HW1 5038   0.355   3.745   2.047
    1SOL    HW2 5039   0.305   3.702   1.911
    1SOL     OW 5040   3.255   2.332   0.737
    1SOL    HW1 5041   3.245   2.286   0.654
    1SOL    HW2 5042   3.239   2.266   0.804
    1SOL     OW 5043   2.884   0.507   2.584
    1SOL    HW1 5044   2.827   0.433   2.608
    1SOL    HW2 5045   2.897   0.554   2.666
    1SOL     OW 5046   2.552   3.075   3.038
    1SOL    HW1 5047   2.489   3.014   3.000
    1SOL    HW2 5048   2.637   3.034   3.022
    1SOL     OW 5049   0.411   3.070   0.967
    1SOL    HW1 5050   0.408   3.023   0.884
    1SOL    HW2 5051   0.439   3.004   1.030
    1SOL     OW 5052   2.055   1.514   0.129
    1SOL    HW1 5053   2.064   1.571   0.206
    1SOL    HW2 5054   1.992   1.560   0.073
    1SOL     OW 5055   0.536   0.336   2.414
    1SOL    HW1 5056   0.495   0.402   2.358
    1SOL    HW2 5057   0.627   0.364   2.420
    1SOL     OW 5058   1.397   3.217   2.728
    1SOL    HW1 5059   1.492   3.229   2.736
    1SOL    HW2 5060   1.385   3.122   2.737
    1SOL     OW 5061   0.343   0.782   1.001
    1SOL    HW1 5062   0.386   0.706   0.962
    1SOL    HW2 5063   0.280   0.745   1.062
    1SOL     OW 5064   0.039   2.473   0.746
    1SOL    HW1 5065  -0.045   2.519   0.754
    1SOL    HW2 5066   0.102   2.542   0.725
    1SOL     OW 5067   3.055   1.585   2.720
    1SOL    HW1 5068   3.093   1.657   2.771
    1SOL    HW2 5069   3.057   1.616   2.630
    1SOL     OW 5070   1.253   0.501   1.465
    1SOL    HW1 5071   1.159   0.514   1.451
    1SOL    HW2 5072   1.263   0.490   1.559
    1SOL     OW 5073   1.787   3.461   1.984
    1SOL    HW1 5074   1.858   3.461   2.050
    1SOL    HW2 5075   1.794   3.547   1.943
    1SOL     OW 5076   1.404   0.626   2.459
    1SOL    HW1 5077   1.410   0.647   2.366
    1SOL    HW2 5078   1.405   0.711   2.503
    1SOL     OW 5079   0.623   0.235   0.194
    1SOL    HW1 5080   0.539   0.273   0.168
    1SOL    HW2 5081   0.641   0.169   0.128
    1SOL     OW 5082   0.478   2.524   3.387
    1SOL    HW1 5083   0.564   2.484   3.380
    1SOL    HW2 5084   0.436   2.479   3.460
    1SOL     OW 5085   2.073   1.125   0.692
    1SOL    HW1 5086   2.153   1.115   0.640
    1SOL    HW2 5087   2.005   1.087   0.637
    1SOL     OW 5088   1.162   3.064   0.050
    1SOL    HW1 5089   1.210   2.983   0.069
    1SOL    HW2 5090   1.225   3.119   0.003
    1SOL     OW 5091   0.366   4.084   0.151
    1SOL    HW1 5092   0.421   4.065   0.226
    1SOL    HW2 5093   0.310   4.007   0.142
    1SOL     OW 5094   3.171   1.999   0.249
    1SOL    HW1 5095   3.186   1.985   0.342
    1SOL    HW2 5096   3.076   2.008   0.241
    1SOL     OW 5097   2.464   3.447   2.188
    1SOL    HW1 5098   2.495   3.510   2.122
    1SOL    HW2 5099   2.471   3.362   2.144
    1SOL     OW 5100   3.359   1.484   0.212
    1SOL    HW1 5101   3.284   1.505   0.156
    1SOL    HW2 5102   3.332   1.404   0.259
    1SOL     OW 5103   1.889   3.901   2.536
    1SOL    HW1 5104   1.806   3.884   2.581
    1SOL    HW2 5105   1.916   3.987   2.568
    1SOL     OW 5106   1.219   3.852   2.813
    1SOL    HW1 5107   1.306   3.853   2.774
    1SOL    HW2 5108   1.163   3.812   2.745
    1SOL     OW 5109   2.636   0.745   0.726
    1SOL    HW1 5110   2.704   0.775   0.667
    1SOL    HW2 5111   2.576   0.819   0.733
    1SOL     OW 5112   1.711   0.992   3.223
    1SOL    HW1 5113   1.733   1.053   3.153
    1SOL    HW2 5114   1.726   0.906   3.185
    1SOL     OW 5115   0.962   4.192   0.114
    1SOL    HW1 5116   1.057   4.180   0.114
    1SOL    HW2 5117   0.937   4.177   0.023
    1SOL     OW 5118   0.290   2.297   2.683
    1SOL    HW1 5119   0.342   2.226   2.720
    1SOL    HW2 5120   0.250   2.339   2.760
    1SOL     OW 5121   0.611   4.034   2.107
    1SOL    HW1 5122   0.583   4.114   2.153
    1SOL    HW2 5123   0.529   3.987   2.090
 1698NA      NA 5124   1.812   0.747   0.958
 1699NA      NA 5125   2.377   2.229   3.369
 1700NA      NA 5126   0.385   0.318   2.880
 1701NA      NA 5127   2.871   1.851   1.464
 1702NA      NA 5128   2.220   2.688   2.753
 1703CL      CL 5129   3.166   1.705   0.645
 1704CL      CL 5130   3.251   3.018   3.253
 1705CL      CL 5131   3.562   4.085   0.080
 1706CL      CL 5132   2.975   1.984   1.951
 1707CL      CL 5133   2.755   0.068   1.711
   3.62994   4.19071   3.42202   0.00000   0.00000   0.05733   0.00000  -1.23842  -2.07881
